
     Program PWSCF v.6.8 starts on 16Jul2025 at 18:54: 2 

     This program is part of the open-source Quantum ESPRESSO suite
     for quantum simulation of materials; please cite
         "P. Giannozzi et al., J. Phys.:Condens. Matter 21 395502 (2009);
         "P. Giannozzi et al., J. Phys.:Condens. Matter 29 465901 (2017);
         "P. Giannozzi et al., J. Chem. Phys. 152 154105 (2020);
          URL http://www.quantum-espresso.org", 
     in publications or presentations arising from this work. More details at
     http://www.quantum-espresso.org/quote

     Parallel version (MPI), running on     4 processors

     MPI processes distributed on     1 nodes
     R & G space division:  proc/nbgrp/npool/nimage =       4
     9048 MiB available memory on the printing compute node when the environment starts

     Reading input from AlF3.scf.in_6x6x6

     Current dimensions of program PWSCF are:
     Max number of different atomic species (ntypx) = 10
     Max number of k-points (npk) =  40000
     Max angular momentum in pseudopotentials (lmaxx) =  4
     file Al.pbe-n-kjpaw_psl.1.0.0.UPF: wavefunction(s)  3S 3P renormalized
     file F.pbe-n-kjpaw_psl.1.0.0.UPF: wavefunction(s)  2S 2P renormalized
     Found symmetry operation: I + ( -0.3333  0.3333  0.3333)
     This is a supercell, fractional translations are disabled
     Message from routine setup:
     using ibrav=0 with symmetry is DISCOURAGED, use correct ibrav instead

     Subspace diagonalization in iterative solution of the eigenvalue problem:
     a serial algorithm will be used


     Parallelization info
     --------------------
     sticks:   dense  smooth     PW     G-vecs:    dense   smooth      PW
     Min        1194     598    168               168194    59540    8794
     Max        1195     599    169               168198    59551    8801
     Sum        4777    2395    673               672787   238187   35191

     Using Slab Decomposition



     bravais-lattice index     =            0
     lattice parameter (alat)  =       9.3253  a.u.
     unit-cell volume          =    1761.8156 (a.u.)^3
     number of atoms/cell      =           24
     number of atomic types    =            2
     number of electrons       =       144.00
     number of Kohn-Sham states=           72
     kinetic-energy cutoff     =     100.0000  Ry
     charge density cutoff     =     800.0000  Ry
     scf convergence threshold =      1.0E-08
     mixing beta               =       0.7000
     number of iterations used =            8  plain     mixing
     Exchange-correlation= SLA  PW   PBX  PBC
                           (   1   4   3   4   0   0   0)

     celldm(1)=   9.325347  celldm(2)=   0.000000  celldm(3)=   0.000000
     celldm(4)=   0.000000  celldm(5)=   0.000000  celldm(6)=   0.000000

     crystal axes: (cart. coord. in units of alat)
               a(1) = (   1.000000   0.000000   0.000000 )  
               a(2) = (  -0.500000   0.866025   0.000000 )  
               a(3) = (   0.000000   0.000000   2.508620 )  

     reciprocal axes: (cart. coord. in units 2 pi/alat)
               b(1) = (  1.000000  0.577350 -0.000000 )  
               b(2) = (  0.000000  1.154701  0.000000 )  
               b(3) = (  0.000000 -0.000000  0.398626 )  


     PseudoPot. # 1 for Al read from file:
     ../../Pseudo/Al.pbe-n-kjpaw_psl.1.0.0.UPF
     MD5 check sum: 52edf3c3f0a11d3bd4e10b4aee4665d0
     Pseudo is Projector augmented-wave + core cor, Zval =  3.0
     Generated using &quot;atomic&quot; code by A. Dal Corso  v.6.3
     Shape of augmentation charge: PSQ
     Using radial grid of 1135 points,  6 beta functions with: 
                l(1) =   0
                l(2) =   0
                l(3) =   1
                l(4) =   1
                l(5) =   2
                l(6) =   2
     Q(r) pseudized with 0 coefficients 


     PseudoPot. # 2 for F  read from file:
     ../../Pseudo/F.pbe-n-kjpaw_psl.1.0.0.UPF
     MD5 check sum: 3189b5d740a3f1e0650252e1c324aeb8
     Pseudo is Projector augmented-wave + core cor, Zval =  7.0
     Generated using &quot;atomic&quot; code by A. Dal Corso  v.6.3
     Shape of augmentation charge: PSQ
     Using radial grid of 1105 points,  4 beta functions with: 
                l(1) =   0
                l(2) =   0
                l(3) =   1
                l(4) =   1
     Q(r) pseudized with 0 coefficients 


     atomic species   valence    mass     pseudopotential
        Al             3.00    26.98154     Al( 1.00)
        F              7.00    18.99840     F ( 1.00)

      6 Sym. Ops., with inversion, found


                                    s                        frac. trans.

      isym =  1     identity                                     

 cryst.   s( 1) = (     1          0          0      )
                  (     0          1          0      )
                  (     0          0          1      )

 cart.    s( 1) = (  1.0000000  0.0000000  0.0000000 )
                  (  0.0000000  1.0000000  0.0000000 )
                  (  0.0000000  0.0000000  1.0000000 )


      isym =  2     120 deg rotation - cryst. axis [0,0,1]       

 cryst.   s( 2) = (     0          1          0      )
                  (    -1         -1          0      )
                  (     0          0          1      )

 cart.    s( 2) = ( -0.5000000 -0.8660254  0.0000000 )
                  (  0.8660254 -0.5000000  0.0000000 )
                  (  0.0000000  0.0000000  1.0000000 )


      isym =  3     120 deg rotation - cryst. axis [0,0,-1]      

 cryst.   s( 3) = (    -1         -1          0      )
                  (     1          0          0      )
                  (     0          0          1      )

 cart.    s( 3) = ( -0.5000000  0.8660254  0.0000000 )
                  ( -0.8660254 -0.5000000  0.0000000 )
                  (  0.0000000  0.0000000  1.0000000 )


      isym =  4     inversion                                    

 cryst.   s( 4) = (    -1          0          0      )
                  (     0         -1          0      )
                  (     0          0         -1      )

 cart.    s( 4) = ( -1.0000000  0.0000000  0.0000000 )
                  (  0.0000000 -1.0000000  0.0000000 )
                  (  0.0000000  0.0000000 -1.0000000 )


      isym =  5     inv. 120 deg rotation - cryst. axis [0,0,1]  

 cryst.   s( 5) = (     0         -1          0      )
                  (     1          1          0      )
                  (     0          0         -1      )

 cart.    s( 5) = (  0.5000000  0.8660254  0.0000000 )
                  ( -0.8660254  0.5000000  0.0000000 )
                  (  0.0000000  0.0000000 -1.0000000 )


      isym =  6     inv. 120 deg rotation - cryst. axis [0,0,-1] 

 cryst.   s( 6) = (     1          1          0      )
                  (    -1          0          0      )
                  (     0          0         -1      )

 cart.    s( 6) = (  0.5000000 -0.8660254  0.0000000 )
                  (  0.8660254  0.5000000  0.0000000 )
                  (  0.0000000  0.0000000 -1.0000000 )


   Cartesian axes

     site n.     atom                  positions (alat units)
         1           Al  tau(   1) = (   0.0000000   0.0000000   0.0000000  )
         2           Al  tau(   2) = (   0.0000000   0.0000000   1.2543099  )
         3           Al  tau(   3) = (   0.5000000   0.2886751   0.8362066  )
         4           Al  tau(   4) = (   0.5000000   0.2886751   2.0905165  )
         5           Al  tau(   5) = (   0.0000000   0.5773503   1.6724132  )
         6           Al  tau(   6) = (   0.0000000   0.5773503   0.4181033  )
         7           F   tau(   7) = (   0.4252100   0.0000000   0.6271549  )
         8           F   tau(   8) = (  -0.2126050   0.3682427   0.6271549  )
         9           F   tau(   9) = (   0.2873950   0.4977827   0.6271549  )
        10           F   tau(  10) = (   0.5747900   0.0000000   1.8814648  )
        11           F   tau(  11) = (  -0.2873950   0.4977827   1.8814648  )
        12           F   tau(  12) = (   0.2126050   0.3682427   1.8814648  )
        13           F   tau(  13) = (  -0.0747900   0.2886751   1.4633615  )
        14           F   tau(  14) = (   0.2873950   0.6569178   1.4633615  )
        15           F   tau(  15) = (  -0.2126050   0.7864579   1.4633615  )
        16           F   tau(  16) = (   0.0747900   0.2886751   0.2090516  )
        17           F   tau(  17) = (   0.2126050   0.7864579   0.2090516  )
        18           F   tau(  18) = (  -0.2873950   0.6569178   0.2090516  )
        19           F   tau(  19) = (   0.4252100   0.5773503   2.2995681  )
        20           F   tau(  20) = (   0.2873950   0.0795675   2.2995681  )
        21           F   tau(  21) = (   0.7873950   0.2091076   2.2995681  )
        22           F   tau(  22) = (   0.5747900   0.5773503   1.0452582  )
        23           F   tau(  23) = (   0.2126050   0.2091076   1.0452582  )
        24           F   tau(  24) = (   0.7126050   0.0795675   1.0452582  )

   Crystallographic axes

     site n.     atom                  positions (cryst. coord.)
         1           Al  tau(   1) = (  0.0000000  0.0000000  0.0000000  )
         2           Al  tau(   2) = (  0.0000000  0.0000000  0.5000000  )
         3           Al  tau(   3) = (  0.6666667  0.3333333  0.3333333  )
         4           Al  tau(   4) = (  0.6666667  0.3333333  0.8333333  )
         5           Al  tau(   5) = (  0.3333333  0.6666667  0.6666667  )
         6           Al  tau(   6) = (  0.3333333  0.6666667  0.1666667  )
         7           F   tau(   7) = (  0.4252100  0.0000000  0.2500000  )
         8           F   tau(   8) = (  0.0000000  0.4252100  0.2500000  )
         9           F   tau(   9) = (  0.5747900  0.5747900  0.2500000  )
        10           F   tau(  10) = (  0.5747900  0.0000000  0.7500000  )
        11           F   tau(  11) = ( -0.0000000  0.5747900  0.7500000  )
        12           F   tau(  12) = (  0.4252100  0.4252100  0.7500000  )
        13           F   tau(  13) = (  0.0918767  0.3333333  0.5833333  )
        14           F   tau(  14) = (  0.6666667  0.7585433  0.5833333  )
        15           F   tau(  15) = (  0.2414567  0.9081233  0.5833333  )
        16           F   tau(  16) = (  0.2414567  0.3333333  0.0833333  )
        17           F   tau(  17) = (  0.6666667  0.9081233  0.0833333  )
        18           F   tau(  18) = (  0.0918767  0.7585433  0.0833333  )
        19           F   tau(  19) = (  0.7585433  0.6666667  0.9166667  )
        20           F   tau(  20) = (  0.3333333  0.0918767  0.9166667  )
        21           F   tau(  21) = (  0.9081233  0.2414567  0.9166667  )
        22           F   tau(  22) = (  0.9081233  0.6666667  0.4166667  )
        23           F   tau(  23) = (  0.3333333  0.2414567  0.4166667  )
        24           F   tau(  24) = (  0.7585433  0.0918767  0.4166667  )

     number of k points=   108
                       cart. coord. in units 2pi/alat
        k(    1) = (   0.0833333   0.1443376   0.0332188), wk =   0.0185185
        k(    2) = (   0.0833333   0.1443376   0.0996564), wk =   0.0185185
        k(    3) = (   0.0833333   0.1443376   0.1660940), wk =   0.0185185
        k(    4) = (   0.0833333   0.3367877   0.0332188), wk =   0.0185185
        k(    5) = (   0.0833333   0.3367877   0.0996564), wk =   0.0185185
        k(    6) = (   0.0833333   0.3367877   0.1660940), wk =   0.0185185
        k(    7) = (   0.0833333   0.5292377   0.0332188), wk =   0.0185185
        k(    8) = (   0.0833333   0.5292377   0.0996564), wk =   0.0185185
        k(    9) = (   0.0833333   0.5292377   0.1660940), wk =   0.0185185
        k(   10) = (   0.0833333  -0.4330127   0.0332188), wk =   0.0185185
        k(   11) = (   0.0833333  -0.4330127   0.0996564), wk =   0.0185185
        k(   12) = (   0.0833333  -0.4330127   0.1660940), wk =   0.0185185
        k(   13) = (   0.0833333  -0.2405626   0.0332188), wk =   0.0185185
        k(   14) = (   0.0833333  -0.2405626   0.0996564), wk =   0.0185185
        k(   15) = (   0.0833333  -0.2405626   0.1660940), wk =   0.0185185
        k(   16) = (   0.0833333  -0.0481125   0.0332188), wk =   0.0185185
        k(   17) = (   0.0833333  -0.0481125   0.0996564), wk =   0.0185185
        k(   18) = (   0.0833333  -0.0481125   0.1660940), wk =   0.0185185
        k(   19) = (   0.2500000   0.4330127   0.0332188), wk =   0.0185185
        k(   20) = (   0.2500000   0.4330127   0.0996564), wk =   0.0185185
        k(   21) = (   0.2500000   0.4330127   0.1660940), wk =   0.0185185
        k(   22) = (   0.2500000   0.6254628   0.0332188), wk =   0.0185185
        k(   23) = (   0.2500000   0.6254628   0.0996564), wk =   0.0185185
        k(   24) = (   0.2500000   0.6254628   0.1660940), wk =   0.0185185
        k(   25) = (   0.2500000  -0.3367877   0.0332188), wk =   0.0185185
        k(   26) = (   0.2500000  -0.3367877   0.0996564), wk =   0.0185185
        k(   27) = (   0.2500000  -0.3367877   0.1660940), wk =   0.0185185
        k(   28) = (   0.2500000  -0.1443376   0.0332188), wk =   0.0185185
        k(   29) = (   0.2500000  -0.1443376   0.0996564), wk =   0.0185185
        k(   30) = (   0.2500000  -0.1443376   0.1660940), wk =   0.0185185
        k(   31) = (   0.4166667   0.7216878   0.0332188), wk =   0.0185185
        k(   32) = (   0.4166667   0.7216878   0.0996564), wk =   0.0185185
        k(   33) = (   0.4166667   0.7216878   0.1660940), wk =   0.0185185
        k(   34) = (   0.4166667  -0.2405626   0.0332188), wk =   0.0185185
        k(   35) = (   0.4166667  -0.2405626   0.0996564), wk =   0.0185185
        k(   36) = (   0.4166667  -0.2405626   0.1660940), wk =   0.0185185
        k(   37) = (  -0.0833333  -0.1443376   0.0332188), wk =   0.0185185
        k(   38) = (  -0.0833333  -0.1443376   0.0996564), wk =   0.0185185
        k(   39) = (  -0.0833333  -0.1443376   0.1660940), wk =   0.0185185
        k(   40) = (  -0.0833333  -0.3367877   0.0332188), wk =   0.0185185
        k(   41) = (  -0.0833333   0.3367877  -0.0332188), wk =   0.0185185
        k(   42) = (  -0.3333333   0.0962250  -0.0332188), wk =   0.0185185
        k(   43) = (  -0.0833333  -0.3367877   0.0996564), wk =   0.0185185
        k(   44) = (  -0.0833333   0.3367877  -0.0996564), wk =   0.0185185
        k(   45) = (  -0.3333333   0.0962250  -0.0996564), wk =   0.0185185
        k(   46) = (  -0.0833333  -0.3367877   0.1660940), wk =   0.0185185
        k(   47) = (  -0.0833333   0.3367877  -0.1660940), wk =   0.0185185
        k(   48) = (  -0.3333333   0.0962250  -0.1660940), wk =   0.0185185
        k(   49) = (  -0.0833333  -0.5292377   0.0332188), wk =   0.0185185
        k(   50) = (  -0.0833333   0.5292377  -0.0332188), wk =   0.0185185
        k(   51) = (  -0.5000000   0.1924501  -0.0332188), wk =   0.0185185
        k(   52) = (  -0.0833333  -0.5292377   0.0996564), wk =   0.0185185
        k(   53) = (  -0.0833333   0.5292377  -0.0996564), wk =   0.0185185
        k(   54) = (  -0.5000000   0.1924501  -0.0996564), wk =   0.0185185
        k(   55) = (  -0.0833333  -0.5292377   0.1660940), wk =   0.0185185
        k(   56) = (  -0.0833333   0.5292377  -0.1660940), wk =   0.0185185
        k(   57) = (  -0.5000000   0.1924501  -0.1660940), wk =   0.0185185
        k(   58) = (  -0.0833333   0.4330127   0.0332188), wk =   0.0185185
        k(   59) = (  -0.0833333  -0.4330127  -0.0332188), wk =   0.0185185
        k(   60) = (   0.3333333  -0.2886751  -0.0332188), wk =   0.0185185
        k(   61) = (  -0.0833333   0.4330127   0.0996564), wk =   0.0185185
        k(   62) = (  -0.0833333  -0.4330127  -0.0996564), wk =   0.0185185
        k(   63) = (   0.3333333  -0.2886751  -0.0996564), wk =   0.0185185
        k(   64) = (  -0.0833333   0.4330127   0.1660940), wk =   0.0185185
        k(   65) = (  -0.0833333  -0.4330127  -0.1660940), wk =   0.0185185
        k(   66) = (   0.3333333  -0.2886751  -0.1660940), wk =   0.0185185
        k(   67) = (  -0.0833333   0.2405626   0.0332188), wk =   0.0185185
        k(   68) = (  -0.0833333  -0.2405626  -0.0332188), wk =   0.0185185
        k(   69) = (   0.1666667  -0.1924501  -0.0332188), wk =   0.0185185
        k(   70) = (  -0.0833333   0.2405626   0.0996564), wk =   0.0185185
        k(   71) = (  -0.0833333  -0.2405626  -0.0996564), wk =   0.0185185
        k(   72) = (   0.1666667  -0.1924501  -0.0996564), wk =   0.0185185
        k(   73) = (  -0.0833333   0.2405626   0.1660940), wk =   0.0185185
        k(   74) = (  -0.0833333  -0.2405626  -0.1660940), wk =   0.0185185
        k(   75) = (   0.1666667  -0.1924501  -0.1660940), wk =   0.0185185
        k(   76) = (  -0.0833333   0.0481125   0.0332188), wk =   0.0185185
        k(   77) = (  -0.0833333   0.0481125   0.0996564), wk =   0.0185185
        k(   78) = (  -0.0833333   0.0481125   0.1660940), wk =   0.0185185
        k(   79) = (  -0.2500000  -0.4330127   0.0332188), wk =   0.0185185
        k(   80) = (  -0.2500000  -0.4330127   0.0996564), wk =   0.0185185
        k(   81) = (  -0.2500000  -0.4330127   0.1660940), wk =   0.0185185
        k(   82) = (  -0.2500000  -0.6254628   0.0332188), wk =   0.0185185
        k(   83) = (  -0.2500000   0.6254628  -0.0332188), wk =   0.0185185
        k(   84) = (  -0.6666667   0.0962250  -0.0332188), wk =   0.0185185
        k(   85) = (  -0.2500000  -0.6254628   0.0996564), wk =   0.0185185
        k(   86) = (  -0.2500000   0.6254628  -0.0996564), wk =   0.0185185
        k(   87) = (  -0.6666667   0.0962250  -0.0996564), wk =   0.0185185
        k(   88) = (  -0.2500000  -0.6254628   0.1660940), wk =   0.0185185
        k(   89) = (  -0.2500000   0.6254628  -0.1660940), wk =   0.0185185
        k(   90) = (  -0.6666667   0.0962250  -0.1660940), wk =   0.0185185
        k(   91) = (  -0.2500000   0.3367877   0.0332188), wk =   0.0185185
        k(   92) = (  -0.2500000  -0.3367877  -0.0332188), wk =   0.0185185
        k(   93) = (   0.1666667  -0.3849002  -0.0332188), wk =   0.0185185
        k(   94) = (  -0.2500000   0.3367877   0.0996564), wk =   0.0185185
        k(   95) = (  -0.2500000  -0.3367877  -0.0996564), wk =   0.0185185
        k(   96) = (   0.1666667  -0.3849002  -0.0996564), wk =   0.0185185
        k(   97) = (  -0.2500000   0.3367877   0.1660940), wk =   0.0185185
        k(   98) = (  -0.2500000  -0.3367877  -0.1660940), wk =   0.0185185
        k(   99) = (   0.1666667  -0.3849002  -0.1660940), wk =   0.0185185
        k(  100) = (  -0.2500000   0.1443376   0.0332188), wk =   0.0185185
        k(  101) = (  -0.2500000   0.1443376   0.0996564), wk =   0.0185185
        k(  102) = (  -0.2500000   0.1443376   0.1660940), wk =   0.0185185
        k(  103) = (  -0.4166667  -0.7216878   0.0332188), wk =   0.0185185
        k(  104) = (  -0.4166667  -0.7216878   0.0996564), wk =   0.0185185
        k(  105) = (  -0.4166667  -0.7216878   0.1660940), wk =   0.0185185
        k(  106) = (  -0.4166667   0.2405626   0.0332188), wk =   0.0185185
        k(  107) = (  -0.4166667   0.2405626   0.0996564), wk =   0.0185185
        k(  108) = (  -0.4166667   0.2405626   0.1660940), wk =   0.0185185

                       cryst. coord.
        k(    1) = (   0.0833333   0.0833333   0.0833333), wk =   0.0185185
        k(    2) = (   0.0833333   0.0833333   0.2500000), wk =   0.0185185
        k(    3) = (   0.0833333   0.0833333   0.4166667), wk =   0.0185185
        k(    4) = (   0.0833333   0.2500000   0.0833333), wk =   0.0185185
        k(    5) = (   0.0833333   0.2500000   0.2500000), wk =   0.0185185
        k(    6) = (   0.0833333   0.2500000   0.4166667), wk =   0.0185185
        k(    7) = (   0.0833333   0.4166667   0.0833333), wk =   0.0185185
        k(    8) = (   0.0833333   0.4166667   0.2500000), wk =   0.0185185
        k(    9) = (   0.0833333   0.4166667   0.4166667), wk =   0.0185185
        k(   10) = (   0.0833333  -0.4166667   0.0833333), wk =   0.0185185
        k(   11) = (   0.0833333  -0.4166667   0.2500000), wk =   0.0185185
        k(   12) = (   0.0833333  -0.4166667   0.4166667), wk =   0.0185185
        k(   13) = (   0.0833333  -0.2500000   0.0833333), wk =   0.0185185
        k(   14) = (   0.0833333  -0.2500000   0.2500000), wk =   0.0185185
        k(   15) = (   0.0833333  -0.2500000   0.4166667), wk =   0.0185185
        k(   16) = (   0.0833333  -0.0833333   0.0833333), wk =   0.0185185
        k(   17) = (   0.0833333  -0.0833333   0.2500000), wk =   0.0185185
        k(   18) = (   0.0833333  -0.0833333   0.4166667), wk =   0.0185185
        k(   19) = (   0.2500000   0.2500000   0.0833333), wk =   0.0185185
        k(   20) = (   0.2500000   0.2500000   0.2500000), wk =   0.0185185
        k(   21) = (   0.2500000   0.2500000   0.4166667), wk =   0.0185185
        k(   22) = (   0.2500000   0.4166667   0.0833333), wk =   0.0185185
        k(   23) = (   0.2500000   0.4166667   0.2500000), wk =   0.0185185
        k(   24) = (   0.2500000   0.4166667   0.4166667), wk =   0.0185185
        k(   25) = (   0.2500000  -0.4166667   0.0833333), wk =   0.0185185
        k(   26) = (   0.2500000  -0.4166667   0.2500000), wk =   0.0185185
        k(   27) = (   0.2500000  -0.4166667   0.4166667), wk =   0.0185185
        k(   28) = (   0.2500000  -0.2500000   0.0833333), wk =   0.0185185
        k(   29) = (   0.2500000  -0.2500000   0.2500000), wk =   0.0185185
        k(   30) = (   0.2500000  -0.2500000   0.4166667), wk =   0.0185185
        k(   31) = (   0.4166667   0.4166667   0.0833333), wk =   0.0185185
        k(   32) = (   0.4166667   0.4166667   0.2500000), wk =   0.0185185
        k(   33) = (   0.4166667   0.4166667   0.4166667), wk =   0.0185185
        k(   34) = (   0.4166667  -0.4166667   0.0833333), wk =   0.0185185
        k(   35) = (   0.4166667  -0.4166667   0.2500000), wk =   0.0185185
        k(   36) = (   0.4166667  -0.4166667   0.4166667), wk =   0.0185185
        k(   37) = (  -0.0833333  -0.0833333   0.0833333), wk =   0.0185185
        k(   38) = (  -0.0833333  -0.0833333   0.2500000), wk =   0.0185185
        k(   39) = (  -0.0833333  -0.0833333   0.4166667), wk =   0.0185185
        k(   40) = (  -0.0833333  -0.2500000   0.0833333), wk =   0.0185185
        k(   41) = (  -0.0833333   0.3333333  -0.0833333), wk =   0.0185185
        k(   42) = (  -0.3333333   0.2500000  -0.0833333), wk =   0.0185185
        k(   43) = (  -0.0833333  -0.2500000   0.2500000), wk =   0.0185185
        k(   44) = (  -0.0833333   0.3333333  -0.2500000), wk =   0.0185185
        k(   45) = (  -0.3333333   0.2500000  -0.2500000), wk =   0.0185185
        k(   46) = (  -0.0833333  -0.2500000   0.4166667), wk =   0.0185185
        k(   47) = (  -0.0833333   0.3333333  -0.4166667), wk =   0.0185185
        k(   48) = (  -0.3333333   0.2500000  -0.4166667), wk =   0.0185185
        k(   49) = (  -0.0833333  -0.4166667   0.0833333), wk =   0.0185185
        k(   50) = (  -0.0833333   0.5000000  -0.0833333), wk =   0.0185185
        k(   51) = (  -0.5000000   0.4166667  -0.0833333), wk =   0.0185185
        k(   52) = (  -0.0833333  -0.4166667   0.2500000), wk =   0.0185185
        k(   53) = (  -0.0833333   0.5000000  -0.2500000), wk =   0.0185185
        k(   54) = (  -0.5000000   0.4166667  -0.2500000), wk =   0.0185185
        k(   55) = (  -0.0833333  -0.4166667   0.4166667), wk =   0.0185185
        k(   56) = (  -0.0833333   0.5000000  -0.4166667), wk =   0.0185185
        k(   57) = (  -0.5000000   0.4166667  -0.4166667), wk =   0.0185185
        k(   58) = (  -0.0833333   0.4166667   0.0833333), wk =   0.0185185
        k(   59) = (  -0.0833333  -0.3333333  -0.0833333), wk =   0.0185185
        k(   60) = (   0.3333333  -0.4166667  -0.0833333), wk =   0.0185185
        k(   61) = (  -0.0833333   0.4166667   0.2500000), wk =   0.0185185
        k(   62) = (  -0.0833333  -0.3333333  -0.2500000), wk =   0.0185185
        k(   63) = (   0.3333333  -0.4166667  -0.2500000), wk =   0.0185185
        k(   64) = (  -0.0833333   0.4166667   0.4166667), wk =   0.0185185
        k(   65) = (  -0.0833333  -0.3333333  -0.4166667), wk =   0.0185185
        k(   66) = (   0.3333333  -0.4166667  -0.4166667), wk =   0.0185185
        k(   67) = (  -0.0833333   0.2500000   0.0833333), wk =   0.0185185
        k(   68) = (  -0.0833333  -0.1666667  -0.0833333), wk =   0.0185185
        k(   69) = (   0.1666667  -0.2500000  -0.0833333), wk =   0.0185185
        k(   70) = (  -0.0833333   0.2500000   0.2500000), wk =   0.0185185
        k(   71) = (  -0.0833333  -0.1666667  -0.2500000), wk =   0.0185185
        k(   72) = (   0.1666667  -0.2500000  -0.2500000), wk =   0.0185185
        k(   73) = (  -0.0833333   0.2500000   0.4166667), wk =   0.0185185
        k(   74) = (  -0.0833333  -0.1666667  -0.4166667), wk =   0.0185185
        k(   75) = (   0.1666667  -0.2500000  -0.4166667), wk =   0.0185185
        k(   76) = (  -0.0833333   0.0833333   0.0833333), wk =   0.0185185
        k(   77) = (  -0.0833333   0.0833333   0.2500000), wk =   0.0185185
        k(   78) = (  -0.0833333   0.0833333   0.4166667), wk =   0.0185185
        k(   79) = (  -0.2500000  -0.2500000   0.0833333), wk =   0.0185185
        k(   80) = (  -0.2500000  -0.2500000   0.2500000), wk =   0.0185185
        k(   81) = (  -0.2500000  -0.2500000   0.4166667), wk =   0.0185185
        k(   82) = (  -0.2500000  -0.4166667   0.0833333), wk =   0.0185185
        k(   83) = (  -0.2500000   0.6666667  -0.0833333), wk =   0.0185185
        k(   84) = (  -0.6666667   0.4166667  -0.0833333), wk =   0.0185185
        k(   85) = (  -0.2500000  -0.4166667   0.2500000), wk =   0.0185185
        k(   86) = (  -0.2500000   0.6666667  -0.2500000), wk =   0.0185185
        k(   87) = (  -0.6666667   0.4166667  -0.2500000), wk =   0.0185185
        k(   88) = (  -0.2500000  -0.4166667   0.4166667), wk =   0.0185185
        k(   89) = (  -0.2500000   0.6666667  -0.4166667), wk =   0.0185185
        k(   90) = (  -0.6666667   0.4166667  -0.4166667), wk =   0.0185185
        k(   91) = (  -0.2500000   0.4166667   0.0833333), wk =   0.0185185
        k(   92) = (  -0.2500000  -0.1666667  -0.0833333), wk =   0.0185185
        k(   93) = (   0.1666667  -0.4166667  -0.0833333), wk =   0.0185185
        k(   94) = (  -0.2500000   0.4166667   0.2500000), wk =   0.0185185
        k(   95) = (  -0.2500000  -0.1666667  -0.2500000), wk =   0.0185185
        k(   96) = (   0.1666667  -0.4166667  -0.2500000), wk =   0.0185185
        k(   97) = (  -0.2500000   0.4166667   0.4166667), wk =   0.0185185
        k(   98) = (  -0.2500000  -0.1666667  -0.4166667), wk =   0.0185185
        k(   99) = (   0.1666667  -0.4166667  -0.4166667), wk =   0.0185185
        k(  100) = (  -0.2500000   0.2500000   0.0833333), wk =   0.0185185
        k(  101) = (  -0.2500000   0.2500000   0.2500000), wk =   0.0185185
        k(  102) = (  -0.2500000   0.2500000   0.4166667), wk =   0.0185185
        k(  103) = (  -0.4166667  -0.4166667   0.0833333), wk =   0.0185185
        k(  104) = (  -0.4166667  -0.4166667   0.2500000), wk =   0.0185185
        k(  105) = (  -0.4166667  -0.4166667   0.4166667), wk =   0.0185185
        k(  106) = (  -0.4166667   0.4166667   0.0833333), wk =   0.0185185
        k(  107) = (  -0.4166667   0.4166667   0.2500000), wk =   0.0185185
        k(  108) = (  -0.4166667   0.4166667   0.4166667), wk =   0.0185185

     Dense  grid:   672787 G-vectors     FFT dimensions: (  90,  90, 216)

     Smooth grid:   238187 G-vectors     FFT dimensions: (  60,  60, 150)

     Dynamical RAM for                 wfc:       8.17 MB

     Dynamical RAM for     wfc (w. buffer):     890.71 MB

     Dynamical RAM for           str. fact:       5.13 MB

     Dynamical RAM for           local pot:       0.00 MB

     Dynamical RAM for          nlocal pot:      28.60 MB

     Dynamical RAM for                qrad:       4.54 MB

     Dynamical RAM for          rho,v,vnew:      17.71 MB

     Dynamical RAM for               rhoin:       5.90 MB

     Dynamical RAM for            rho*nmix:      41.06 MB

     Dynamical RAM for           G-vectors:      10.08 MB

     Dynamical RAM for          h,s,v(r/c):       0.95 MB

     Dynamical RAM for          <psi|beta>:       0.28 MB

     Dynamical RAM for                 psi:      16.34 MB

     Dynamical RAM for                hpsi:      16.34 MB

     Dynamical RAM for                spsi:      16.34 MB

     Dynamical RAM for      wfcinit/wfcrot:      22.00 MB

     Dynamical RAM for           addusdens:     523.55 MB

     Estimated static dynamical RAM per process >     987.06 MB

     Estimated max dynamical RAM per process >       1.52 GB

     Estimated total dynamical RAM >       6.06 GB

     Initial potential from superposition of free atoms

     starting charge  143.98625, renormalised to  144.00000
     Starting wfcs are   96 randomized atomic wfcs
     Checking if some PAW data can be deallocated... 
       PAW data deallocated on    3 nodes for type:  1
       PAW data deallocated on    1 nodes for type:  2

     total cpu time spent up to now is      296.4 secs

     Self-consistent Calculation

     iteration #  1     ecut=   100.00 Ry     beta= 0.70
     Davidson diagonalization with overlap

---- Real-time Memory Report at c_bands before calling an iterative solver
          1055 MiB given to the printing process from OS
             0 MiB allocation reported by mallinfo(arena+hblkhd)
          4948 MiB available memory on the node where the printing process lives
------------------
     ethr =  1.00E-02,  avg # of iterations =  2.0

     total cpu time spent up to now is     1229.7 secs

     total energy              =   -1307.84276215 Ry
     estimated scf accuracy    <       2.64723792 Ry

     iteration #  2     ecut=   100.00 Ry     beta= 0.70
     Davidson diagonalization with overlap

---- Real-time Memory Report at c_bands before calling an iterative solver
          1553 MiB given to the printing process from OS
             0 MiB allocation reported by mallinfo(arena+hblkhd)
          4827 MiB available memory on the node where the printing process lives
------------------
     ethr =  1.84E-03,  avg # of iterations =  2.0

     total cpu time spent up to now is     2519.7 secs

     total energy              =   -1308.74181074 Ry
     estimated scf accuracy    <       1.47265677 Ry

     iteration #  3     ecut=   100.00 Ry     beta= 0.70
     Davidson diagonalization with overlap

---- Real-time Memory Report at c_bands before calling an iterative solver
          1555 MiB given to the printing process from OS
             0 MiB allocation reported by mallinfo(arena+hblkhd)
          3319 MiB available memory on the node where the printing process lives
------------------
     ethr =  1.02E-03,  avg # of iterations =  2.0

     total cpu time spent up to now is     7858.3 secs

     total energy              =   -1308.98775292 Ry
     estimated scf accuracy    <       0.01481286 Ry

     iteration #  4     ecut=   100.00 Ry     beta= 0.70
     Davidson diagonalization with overlap

---- Real-time Memory Report at c_bands before calling an iterative solver
          1556 MiB given to the printing process from OS
             0 MiB allocation reported by mallinfo(arena+hblkhd)
          3240 MiB available memory on the node where the printing process lives
------------------
     ethr =  1.03E-05,  avg # of iterations =  3.7

     total cpu time spent up to now is    12299.0 secs

     total energy              =   -1308.99444750 Ry
     estimated scf accuracy    <       0.00651455 Ry

     iteration #  5     ecut=   100.00 Ry     beta= 0.70
     Davidson diagonalization with overlap

---- Real-time Memory Report at c_bands before calling an iterative solver
          1558 MiB given to the printing process from OS
             0 MiB allocation reported by mallinfo(arena+hblkhd)
          3200 MiB available memory on the node where the printing process lives
------------------
     ethr =  4.52E-06,  avg # of iterations =  2.0

     total cpu time spent up to now is    15403.7 secs

     total energy              =   -1308.99478434 Ry
     estimated scf accuracy    <       0.00059899 Ry

     iteration #  6     ecut=   100.00 Ry     beta= 0.70
     Davidson diagonalization with overlap

---- Real-time Memory Report at c_bands before calling an iterative solver
          1560 MiB given to the printing process from OS
             0 MiB allocation reported by mallinfo(arena+hblkhd)
          3687 MiB available memory on the node where the printing process lives
------------------
     ethr =  4.16E-07,  avg # of iterations =  3.5

     total cpu time spent up to now is    19471.6 secs

     total energy              =   -1308.99501403 Ry
     estimated scf accuracy    <       0.00003735 Ry

     iteration #  7     ecut=   100.00 Ry     beta= 0.70
     Davidson diagonalization with overlap

---- Real-time Memory Report at c_bands before calling an iterative solver
          1562 MiB given to the printing process from OS
             0 MiB allocation reported by mallinfo(arena+hblkhd)
          2270 MiB available memory on the node where the printing process lives
------------------
     ethr =  2.59E-08,  avg # of iterations =  3.9

     total cpu time spent up to now is    23305.7 secs

     total energy              =   -1308.99500269 Ry
     estimated scf accuracy    <       0.00003351 Ry

     iteration #  8     ecut=   100.00 Ry     beta= 0.70
     Davidson diagonalization with overlap

---- Real-time Memory Report at c_bands before calling an iterative solver
          1564 MiB given to the printing process from OS
             0 MiB allocation reported by mallinfo(arena+hblkhd)
          2215 MiB available memory on the node where the printing process lives
------------------
     ethr =  2.33E-08,  avg # of iterations =  2.0

     total cpu time spent up to now is    26871.3 secs

     total energy              =   -1308.99500712 Ry
     estimated scf accuracy    <       0.00000091 Ry

     iteration #  9     ecut=   100.00 Ry     beta= 0.70
     Davidson diagonalization with overlap

---- Real-time Memory Report at c_bands before calling an iterative solver
          1566 MiB given to the printing process from OS
             0 MiB allocation reported by mallinfo(arena+hblkhd)
          2763 MiB available memory on the node where the printing process lives
------------------
     ethr =  6.29E-10,  avg # of iterations =  4.6

     total cpu time spent up to now is    31661.7 secs

     total energy              =   -1308.99500768 Ry
     estimated scf accuracy    <       0.00000033 Ry

     iteration # 10     ecut=   100.00 Ry     beta= 0.70
     Davidson diagonalization with overlap

---- Real-time Memory Report at c_bands before calling an iterative solver
          1568 MiB given to the printing process from OS
             0 MiB allocation reported by mallinfo(arena+hblkhd)
          2777 MiB available memory on the node where the printing process lives
------------------
     ethr =  2.28E-10,  avg # of iterations =  2.0

     total cpu time spent up to now is    34684.1 secs

     total energy              =   -1308.99500768 Ry
     estimated scf accuracy    <       0.00000004 Ry

     iteration # 11     ecut=   100.00 Ry     beta= 0.70
     Davidson diagonalization with overlap

---- Real-time Memory Report at c_bands before calling an iterative solver
          1569 MiB given to the printing process from OS
             0 MiB allocation reported by mallinfo(arena+hblkhd)
          2759 MiB available memory on the node where the printing process lives
------------------
     ethr =  2.71E-11,  avg # of iterations =  3.0

     total cpu time spent up to now is    38775.8 secs

     End of self-consistent calculation

          k = 0.0833 0.1443 0.0332 ( 29725 PWs)   bands (ev):

   -20.7861 -20.5588 -20.4750 -19.9784 -19.8850 -19.6687 -19.6202 -19.6192
   -19.6006 -19.5827 -19.4955 -19.4615 -19.4453 -19.4093 -19.2992 -19.2759
   -19.2699 -19.2437  -5.7636  -5.1809  -4.9799  -3.9637  -3.8127  -3.6585
    -3.5253  -3.3231  -3.2571  -3.1289  -2.9892  -2.8168  -2.2624  -2.0984
    -2.0346  -1.9873  -1.9482  -1.9077  -1.9000  -1.8142  -1.8052  -1.5209
    -1.5047  -1.4186  -1.3777  -1.2372  -1.0859  -0.9253  -0.7111  -0.4388
    -0.2641  -0.1927  -0.1707  -0.0254  -0.0211   0.0288   0.1038   0.1685
     0.1946   0.1982   0.2515   0.3109   0.3657   0.3899   0.3958   0.4902
     0.5167   0.5976   0.6172   0.6584   0.6692   0.7325   0.9134   0.9395

     occupation numbers 
     1.0000   1.0000   1.0000   1.0000   1.0000   1.0000   1.0000   1.0000
     1.0000   1.0000   1.0000   1.0000   1.0000   1.0000   1.0000   1.0000
     1.0000   1.0000   1.0000   1.0000   1.0000   1.0000   1.0000   1.0000
     1.0000   1.0000   1.0000   1.0000   1.0000   1.0000   1.0000   1.0000
     1.0000   1.0000   1.0000   1.0000   1.0000   1.0000   1.0000   1.0000
     1.0000   1.0000   1.0000   1.0000   1.0000   1.0000   1.0000   1.0000
     1.0000   1.0000   1.0000   1.0000   1.0000   1.0000   1.0000   1.0000
     1.0000   1.0000   1.0000   1.0000   1.0000   1.0000   1.0000   1.0000
     1.0000   1.0000   1.0000   1.0000   1.0000   1.0000   1.0000   1.0000

          k = 0.0833 0.1443 0.0997 ( 29715 PWs)   bands (ev):

   -20.7702 -20.6317 -20.3825 -20.0784 -19.8024 -19.6765 -19.6312 -19.6106
   -19.5944 -19.5766 -19.5280 -19.4816 -19.4261 -19.3741 -19.3269 -19.2869
   -19.2577 -19.2392  -5.7210  -5.3622  -4.7671  -4.1418  -3.6988  -3.6515
    -3.4798  -3.3507  -3.3420  -3.1464  -2.9769  -2.6368  -2.4399  -2.0941
    -2.0567  -2.0155  -1.9289  -1.9012  -1.8721  -1.7518  -1.6904  -1.6421
    -1.5551  -1.4140  -1.3554  -1.2556  -1.1117  -0.8956  -0.6218  -0.4891
    -0.3373  -0.1805  -0.1150  -0.0627   0.0476   0.0799   0.0896   0.1289
     0.1851   0.2119   0.2364   0.3131   0.3460   0.3730   0.4172   0.4739
     0.5463   0.5497   0.6095   0.6098   0.7243   0.7946   0.8891   0.9253

     occupation numbers 
     1.0000   1.0000   1.0000   1.0000   1.0000   1.0000   1.0000   1.0000
     1.0000   1.0000   1.0000   1.0000   1.0000   1.0000   1.0000   1.0000
     1.0000   1.0000   1.0000   1.0000   1.0000   1.0000   1.0000   1.0000
     1.0000   1.0000   1.0000   1.0000   1.0000   1.0000   1.0000   1.0000
     1.0000   1.0000   1.0000   1.0000   1.0000   1.0000   1.0000   1.0000
     1.0000   1.0000   1.0000   1.0000   1.0000   1.0000   1.0000   1.0000
     1.0000   1.0000   1.0000   1.0000   1.0000   1.0000   1.0000   1.0000
     1.0000   1.0000   1.0000   1.0000   1.0000   1.0000   1.0000   1.0000
     1.0000   1.0000   1.0000   1.0000   1.0000   1.0000   1.0000   1.0000

          k = 0.0833 0.1443 0.1661 ( 29714 PWs)   bands (ev):

   -20.7386 -20.6921 -20.2837 -20.1813 -19.7363 -19.6947 -19.6340 -19.6229
   -19.5832 -19.5577 -19.5481 -19.5161 -19.3914 -19.3579 -19.3411 -19.3115
   -19.2453 -19.2392  -5.6376  -5.5164  -4.5509  -4.3399  -3.6402  -3.6378
    -3.4003  -3.3907  -3.3698  -3.2831  -2.8084  -2.6315  -2.4428  -2.2634
    -2.0587  -2.0406  -1.8624  -1.8228  -1.8190  -1.7619  -1.7010  -1.6340
    -1.5452  -1.4165  -1.4106  -1.3779  -1.0042  -0.8309  -0.6927  -0.5160
    -0.2797  -0.1592  -0.1199  -0.0899   0.0300   0.1047   0.1261   0.1460
     0.1625   0.1872   0.2631   0.3192   0.3282   0.3311   0.4431   0.4636
     0.5322   0.5593   0.5734   0.5951   0.7888   0.8457   0.8504   0.8951

     occupation numbers 
     1.0000   1.0000   1.0000   1.0000   1.0000   1.0000   1.0000   1.0000
     1.0000   1.0000   1.0000   1.0000   1.0000   1.0000   1.0000   1.0000
     1.0000   1.0000   1.0000   1.0000   1.0000   1.0000   1.0000   1.0000
     1.0000   1.0000   1.0000   1.0000   1.0000   1.0000   1.0000   1.0000
     1.0000   1.0000   1.0000   1.0000   1.0000   1.0000   1.0000   1.0000
     1.0000   1.0000   1.0000   1.0000   1.0000   1.0000   1.0000   1.0000
     1.0000   1.0000   1.0000   1.0000   1.0000   1.0000   1.0000   1.0000
     1.0000   1.0000   1.0000   1.0000   1.0000   1.0000   1.0000   1.0000
     1.0000   1.0000   1.0000   1.0000   1.0000   1.0000   1.0000   1.0000

          k = 0.0833 0.3368 0.0332 ( 29737 PWs)   bands (ev):

   -20.6313 -20.4236 -20.3721 -19.9817 -19.9147 -19.8099 -19.6588 -19.6522
   -19.6320 -19.6045 -19.5195 -19.4945 -19.4880 -19.4273 -19.3699 -19.2967
   -19.2598 -19.2423  -5.4086  -4.8952  -4.7682  -4.0580  -3.8235  -3.7798
    -3.3545  -3.1636  -3.1106  -3.0823  -2.7856  -2.6822  -2.5512  -2.3366
    -2.0483  -2.0315  -1.9204  -1.8685  -1.8440  -1.7081  -1.6856  -1.6319
    -1.3992  -1.3867  -1.2349  -1.1210  -0.9957  -0.9117  -0.8061  -0.5890
    -0.4628  -0.4028  -0.2671  -0.2267  -0.1907  -0.1007   0.0349   0.0575
     0.1484   0.2131   0.2208   0.2578   0.2945   0.3083   0.3236   0.3685
     0.3858   0.4848   0.5672   0.5844   0.6762   0.7500   0.7950   0.8781

     occupation numbers 
     1.0000   1.0000   1.0000   1.0000   1.0000   1.0000   1.0000   1.0000
     1.0000   1.0000   1.0000   1.0000   1.0000   1.0000   1.0000   1.0000
     1.0000   1.0000   1.0000   1.0000   1.0000   1.0000   1.0000   1.0000
     1.0000   1.0000   1.0000   1.0000   1.0000   1.0000   1.0000   1.0000
     1.0000   1.0000   1.0000   1.0000   1.0000   1.0000   1.0000   1.0000
     1.0000   1.0000   1.0000   1.0000   1.0000   1.0000   1.0000   1.0000
     1.0000   1.0000   1.0000   1.0000   1.0000   1.0000   1.0000   1.0000
     1.0000   1.0000   1.0000   1.0000   1.0000   1.0000   1.0000   1.0000
     1.0000   1.0000   1.0000   1.0000   1.0000   1.0000   1.0000   1.0000

          k = 0.0833 0.3368 0.0997 ( 29756 PWs)   bands (ev):

   -20.6183 -20.4892 -20.2981 -19.9992 -19.9490 -19.7818 -19.6461 -19.6446
   -19.6373 -19.6193 -19.5399 -19.4668 -19.4517 -19.4459 -19.4023 -19.2860
   -19.2623 -19.2413  -5.3728  -5.0577  -4.6025  -4.0328  -3.9357  -3.7428
    -3.3677  -3.1100  -3.1090  -3.0731  -2.8319  -2.7342  -2.5649  -2.1940
    -2.0850  -1.9710  -1.9396  -1.8828  -1.8649  -1.8299  -1.6375  -1.5488
    -1.4326  -1.3709  -1.3638  -1.1015  -0.9487  -0.8853  -0.7038  -0.5957
    -0.5335  -0.4203  -0.2691  -0.2007  -0.1967  -0.1232   0.0085   0.0274
     0.1669   0.2136   0.2495   0.2538   0.3016   0.3256   0.3262   0.3364
     0.3849   0.5167   0.5393   0.6276   0.7019   0.7300   0.7493   0.8908

     occupation numbers 
     1.0000   1.0000   1.0000   1.0000   1.0000   1.0000   1.0000   1.0000
     1.0000   1.0000   1.0000   1.0000   1.0000   1.0000   1.0000   1.0000
     1.0000   1.0000   1.0000   1.0000   1.0000   1.0000   1.0000   1.0000
     1.0000   1.0000   1.0000   1.0000   1.0000   1.0000   1.0000   1.0000
     1.0000   1.0000   1.0000   1.0000   1.0000   1.0000   1.0000   1.0000
     1.0000   1.0000   1.0000   1.0000   1.0000   1.0000   1.0000   1.0000
     1.0000   1.0000   1.0000   1.0000   1.0000   1.0000   1.0000   1.0000
     1.0000   1.0000   1.0000   1.0000   1.0000   1.0000   1.0000   1.0000
     1.0000   1.0000   1.0000   1.0000   1.0000   1.0000   1.0000   1.0000

          k = 0.0833 0.3368 0.1661 ( 29776 PWs)   bands (ev):

   -20.5918 -20.5438 -20.2220 -20.0885 -19.9219 -19.7632 -19.6659 -19.6437
   -19.6228 -19.5870 -19.5707 -19.4997 -19.4403 -19.4112 -19.4081 -19.2877
   -19.2828 -19.2281  -5.3033  -5.1941  -4.4424  -4.1182  -4.0141  -3.6690
    -3.3336  -3.1471  -3.1072  -2.9708  -2.9664  -2.8301  -2.4199  -2.1301
    -2.0629  -2.0289  -1.9718  -1.8948  -1.8629  -1.8413  -1.5788  -1.4979
    -1.4612  -1.4427  -1.3633  -1.2743  -0.8706  -0.7686  -0.6684  -0.6201
    -0.4232  -0.4227  -0.2817  -0.2115  -0.1759  -0.1381  -0.1194  -0.0743
     0.1576   0.2285   0.2476   0.2509   0.3254   0.3318   0.3502   0.3670
     0.4186   0.5029   0.5477   0.6371   0.6835   0.7005   0.7750   0.8930

     occupation numbers 
     1.0000   1.0000   1.0000   1.0000   1.0000   1.0000   1.0000   1.0000
     1.0000   1.0000   1.0000   1.0000   1.0000   1.0000   1.0000   1.0000
     1.0000   1.0000   1.0000   1.0000   1.0000   1.0000   1.0000   1.0000
     1.0000   1.0000   1.0000   1.0000   1.0000   1.0000   1.0000   1.0000
     1.0000   1.0000   1.0000   1.0000   1.0000   1.0000   1.0000   1.0000
     1.0000   1.0000   1.0000   1.0000   1.0000   1.0000   1.0000   1.0000
     1.0000   1.0000   1.0000   1.0000   1.0000   1.0000   1.0000   1.0000
     1.0000   1.0000   1.0000   1.0000   1.0000   1.0000   1.0000   1.0000
     1.0000   1.0000   1.0000   1.0000   1.0000   1.0000   1.0000   1.0000

          k = 0.0833 0.5292 0.0332 ( 29777 PWs)   bands (ev):

   -20.3881 -20.2894 -20.2417 -20.2062 -20.0295 -19.8345 -19.7232 -19.6665
   -19.6121 -19.5795 -19.5604 -19.5368 -19.5120 -19.4341 -19.3871 -19.3460
   -19.2962 -19.2119  -4.8721  -4.6223  -4.5794  -4.4789  -4.1358  -3.5589
    -3.1365  -3.0468  -2.9445  -2.7886  -2.7090  -2.6838  -2.6476  -2.4754
    -2.4395  -2.1780  -2.0898  -1.8728  -1.8313  -1.5948  -1.5429  -1.4964
    -1.3237  -1.2337  -1.1726  -0.9564  -0.8850  -0.8806  -0.7342  -0.6526
    -0.6372  -0.5794  -0.5548  -0.4249  -0.4161  -0.2117  -0.1924  -0.0426
     0.1075   0.1761   0.2623   0.2734   0.2956   0.3235   0.3495   0.3724
     0.3894   0.4270   0.4619   0.4933   0.5412   0.6749   0.7725   0.8794

     occupation numbers 
     1.0000   1.0000   1.0000   1.0000   1.0000   1.0000   1.0000   1.0000
     1.0000   1.0000   1.0000   1.0000   1.0000   1.0000   1.0000   1.0000
     1.0000   1.0000   1.0000   1.0000   1.0000   1.0000   1.0000   1.0000
     1.0000   1.0000   1.0000   1.0000   1.0000   1.0000   1.0000   1.0000
     1.0000   1.0000   1.0000   1.0000   1.0000   1.0000   1.0000   1.0000
     1.0000   1.0000   1.0000   1.0000   1.0000   1.0000   1.0000   1.0000
     1.0000   1.0000   1.0000   1.0000   1.0000   1.0000   1.0000   1.0000
     1.0000   1.0000   1.0000   1.0000   1.0000   1.0000   1.0000   1.0000
     1.0000   1.0000   1.0000   1.0000   1.0000   1.0000   1.0000   1.0000

          k = 0.0833 0.5292 0.0997 ( 29762 PWs)   bands (ev):

   -20.3842 -20.2751 -20.2599 -20.2244 -19.9741 -19.8803 -19.7204 -19.6741
   -19.6394 -19.5562 -19.5331 -19.5249 -19.4997 -19.4568 -19.4051 -19.3580
   -19.2675 -19.2219  -4.8522  -4.6096  -4.5930  -4.5591  -3.9901  -3.6597
    -3.1531  -3.1157  -2.8521  -2.7414  -2.7215  -2.6909  -2.6265  -2.4881
    -2.4416  -2.1644  -2.1410  -1.9668  -1.7459  -1.5995  -1.5185  -1.4392
    -1.3637  -1.2289  -1.1144  -0.9559  -0.9064  -0.8596  -0.7517  -0.7326
    -0.6507  -0.6202  -0.6007  -0.4644  -0.3417  -0.1618  -0.1067  -0.0286
     0.1086   0.1555   0.2618   0.2707   0.2999   0.3247   0.3251   0.3493
     0.3673   0.4127   0.4364   0.5171   0.5812   0.6555   0.8099   0.8593

     occupation numbers 
     1.0000   1.0000   1.0000   1.0000   1.0000   1.0000   1.0000   1.0000
     1.0000   1.0000   1.0000   1.0000   1.0000   1.0000   1.0000   1.0000
     1.0000   1.0000   1.0000   1.0000   1.0000   1.0000   1.0000   1.0000
     1.0000   1.0000   1.0000   1.0000   1.0000   1.0000   1.0000   1.0000
     1.0000   1.0000   1.0000   1.0000   1.0000   1.0000   1.0000   1.0000
     1.0000   1.0000   1.0000   1.0000   1.0000   1.0000   1.0000   1.0000
     1.0000   1.0000   1.0000   1.0000   1.0000   1.0000   1.0000   1.0000
     1.0000   1.0000   1.0000   1.0000   1.0000   1.0000   1.0000   1.0000
     1.0000   1.0000   1.0000   1.0000   1.0000   1.0000   1.0000   1.0000

          k = 0.0833 0.5292 0.1661 ( 29743 PWs)   bands (ev):

   -20.3721 -20.3052 -20.2667 -20.1997 -19.9423 -19.9179 -19.7014 -19.6665
   -19.6597 -19.6018 -19.4973 -19.4902 -19.4869 -19.4785 -19.4198 -19.3669
   -19.2434 -19.2387  -4.8157  -4.7148  -4.5786  -4.5203  -3.8364  -3.8112
    -3.1647  -3.1191  -2.8035  -2.7801  -2.7300  -2.6590  -2.6262  -2.5397
    -2.3551  -2.2153  -2.0774  -2.0591  -1.6823  -1.6538  -1.5252  -1.4018
    -1.3332  -1.2285  -1.0374  -0.9705  -0.8992  -0.8833  -0.8276  -0.7665
    -0.6624  -0.6620  -0.5781  -0.5178  -0.2374  -0.1470  -0.0711   0.0275
     0.1236   0.1816   0.2247   0.2377   0.2412   0.2986   0.3025   0.3284
     0.3530   0.3860   0.4920   0.5359   0.6112   0.6527   0.8291   0.8430

     occupation numbers 
     1.0000   1.0000   1.0000   1.0000   1.0000   1.0000   1.0000   1.0000
     1.0000   1.0000   1.0000   1.0000   1.0000   1.0000   1.0000   1.0000
     1.0000   1.0000   1.0000   1.0000   1.0000   1.0000   1.0000   1.0000
     1.0000   1.0000   1.0000   1.0000   1.0000   1.0000   1.0000   1.0000
     1.0000   1.0000   1.0000   1.0000   1.0000   1.0000   1.0000   1.0000
     1.0000   1.0000   1.0000   1.0000   1.0000   1.0000   1.0000   1.0000
     1.0000   1.0000   1.0000   1.0000   1.0000   1.0000   1.0000   1.0000
     1.0000   1.0000   1.0000   1.0000   1.0000   1.0000   1.0000   1.0000
     1.0000   1.0000   1.0000   1.0000   1.0000   1.0000   1.0000   1.0000

          k = 0.0833-0.4330 0.0332 ( 29756 PWs)   bands (ev):

   -20.5148 -20.3680 -20.2541 -20.1241 -19.9564 -19.8202 -19.6629 -19.6476
   -19.6464 -19.5984 -19.5788 -19.5610 -19.4687 -19.4063 -19.3678 -19.3342
   -19.3030 -19.2147  -5.1541  -4.7806  -4.5261  -4.3169  -4.0672  -3.5774
    -3.1599  -3.1463  -2.9846  -2.9284  -2.8748  -2.6864  -2.5828  -2.3841
    -2.1612  -2.1401  -2.0663  -1.8516  -1.7956  -1.6836  -1.5857  -1.5423
    -1.4641  -1.1983  -1.1826  -1.0628  -0.9339  -0.9123  -0.8034  -0.6270
    -0.5341  -0.4606  -0.4106  -0.3766  -0.3009  -0.2112  -0.1571   0.0760
     0.1426   0.2105   0.2291   0.2475   0.2763   0.2783   0.2864   0.3537
     0.4113   0.4379   0.5274   0.5374   0.6484   0.6708   0.7981   0.8718

     occupation numbers 
     1.0000   1.0000   1.0000   1.0000   1.0000   1.0000   1.0000   1.0000
     1.0000   1.0000   1.0000   1.0000   1.0000   1.0000   1.0000   1.0000
     1.0000   1.0000   1.0000   1.0000   1.0000   1.0000   1.0000   1.0000
     1.0000   1.0000   1.0000   1.0000   1.0000   1.0000   1.0000   1.0000
     1.0000   1.0000   1.0000   1.0000   1.0000   1.0000   1.0000   1.0000
     1.0000   1.0000   1.0000   1.0000   1.0000   1.0000   1.0000   1.0000
     1.0000   1.0000   1.0000   1.0000   1.0000   1.0000   1.0000   1.0000
     1.0000   1.0000   1.0000   1.0000   1.0000   1.0000   1.0000   1.0000
     1.0000   1.0000   1.0000   1.0000   1.0000   1.0000   1.0000   1.0000

          k = 0.0833-0.4330 0.0997 ( 29746 PWs)   bands (ev):

   -20.4997 -20.4149 -20.1791 -20.1487 -19.9945 -19.7972 -19.6803 -19.6453
   -19.6128 -19.5996 -19.5960 -19.5679 -19.4708 -19.3902 -19.3757 -19.3251
   -19.3158 -19.2134  -5.1227  -4.8905  -4.3498  -4.3366  -4.1506  -3.5708
    -3.1524  -3.0789  -3.0607  -2.9395  -2.8608  -2.8010  -2.4873  -2.3449
    -2.1648  -2.1201  -2.0340  -1.9248  -1.7585  -1.7475  -1.6278  -1.5120
    -1.4199  -1.2060  -1.1311  -1.0432  -0.9900  -0.9136  -0.8964  -0.5924
    -0.4795  -0.4092  -0.3696  -0.3599  -0.3436  -0.2622  -0.0536  -0.0379
     0.0858   0.1570   0.1961   0.2634   0.3013   0.3140   0.3438   0.3747
     0.3816   0.4608   0.4711   0.5455   0.6821   0.6882   0.7656   0.8849

     occupation numbers 
     1.0000   1.0000   1.0000   1.0000   1.0000   1.0000   1.0000   1.0000
     1.0000   1.0000   1.0000   1.0000   1.0000   1.0000   1.0000   1.0000
     1.0000   1.0000   1.0000   1.0000   1.0000   1.0000   1.0000   1.0000
     1.0000   1.0000   1.0000   1.0000   1.0000   1.0000   1.0000   1.0000
     1.0000   1.0000   1.0000   1.0000   1.0000   1.0000   1.0000   1.0000
     1.0000   1.0000   1.0000   1.0000   1.0000   1.0000   1.0000   1.0000
     1.0000   1.0000   1.0000   1.0000   1.0000   1.0000   1.0000   1.0000
     1.0000   1.0000   1.0000   1.0000   1.0000   1.0000   1.0000   1.0000
     1.0000   1.0000   1.0000   1.0000   1.0000   1.0000   1.0000   1.0000

          k = 0.0833-0.4330 0.1661 ( 29765 PWs)   bands (ev):

   -20.4723 -20.4553 -20.1800 -20.0999 -20.0281 -19.8031 -19.7031 -19.6564
   -19.6261 -19.5761 -19.5633 -19.5413 -19.4784 -19.4060 -19.4049 -19.3274
   -19.2863 -19.2194  -5.0596  -4.9885  -4.3916  -4.2131  -4.1513  -3.6261
    -3.2300  -3.0309  -2.9749  -2.9708  -2.8661  -2.8407  -2.3955  -2.3920
    -2.1461  -2.1416  -1.9985  -1.9392  -1.8762  -1.7391  -1.5675  -1.5208
    -1.3080  -1.2176  -1.1704  -1.1094  -0.9359  -0.9211  -0.9006  -0.5673
    -0.5664  -0.4217  -0.4102  -0.3630  -0.2312  -0.2103  -0.1009  -0.0445
     0.0637   0.1049   0.2390   0.2693   0.3121   0.3428   0.3790   0.3835
     0.3925   0.3987   0.4556   0.5459   0.6722   0.7259   0.7395   0.8865

     occupation numbers 
     1.0000   1.0000   1.0000   1.0000   1.0000   1.0000   1.0000   1.0000
     1.0000   1.0000   1.0000   1.0000   1.0000   1.0000   1.0000   1.0000
     1.0000   1.0000   1.0000   1.0000   1.0000   1.0000   1.0000   1.0000
     1.0000   1.0000   1.0000   1.0000   1.0000   1.0000   1.0000   1.0000
     1.0000   1.0000   1.0000   1.0000   1.0000   1.0000   1.0000   1.0000
     1.0000   1.0000   1.0000   1.0000   1.0000   1.0000   1.0000   1.0000
     1.0000   1.0000   1.0000   1.0000   1.0000   1.0000   1.0000   1.0000
     1.0000   1.0000   1.0000   1.0000   1.0000   1.0000   1.0000   1.0000
     1.0000   1.0000   1.0000   1.0000   1.0000   1.0000   1.0000   1.0000

          k = 0.0833-0.2406 0.0332 ( 29721 PWs)   bands (ev):

   -20.7222 -20.5082 -20.4236 -19.9796 -19.8663 -19.7415 -19.6563 -19.6458
   -19.6183 -19.5511 -19.5074 -19.4872 -19.4811 -19.4249 -19.3010 -19.2993
   -19.2598 -19.2497  -5.6165  -5.0714  -4.8688  -3.9856  -3.7569  -3.7551
    -3.4328  -3.2532  -3.2205  -3.1602  -2.9505  -2.6770  -2.3565  -2.2487
    -2.0061  -1.9933  -1.9456  -1.8951  -1.8208  -1.7613  -1.7127  -1.6298
    -1.4697  -1.3932  -1.3835  -1.1383  -1.1159  -0.8982  -0.8246  -0.3307
    -0.3172  -0.3131  -0.1188  -0.0961  -0.0941  -0.0815   0.0241   0.0715
     0.0793   0.1616   0.2649   0.2788   0.3167   0.3517   0.3919   0.4563
     0.4794   0.5645   0.5674   0.6130   0.6515   0.7821   0.8578   0.9058

     occupation numbers 
     1.0000   1.0000   1.0000   1.0000   1.0000   1.0000   1.0000   1.0000
     1.0000   1.0000   1.0000   1.0000   1.0000   1.0000   1.0000   1.0000
     1.0000   1.0000   1.0000   1.0000   1.0000   1.0000   1.0000   1.0000
     1.0000   1.0000   1.0000   1.0000   1.0000   1.0000   1.0000   1.0000
     1.0000   1.0000   1.0000   1.0000   1.0000   1.0000   1.0000   1.0000
     1.0000   1.0000   1.0000   1.0000   1.0000   1.0000   1.0000   1.0000
     1.0000   1.0000   1.0000   1.0000   1.0000   1.0000   1.0000   1.0000
     1.0000   1.0000   1.0000   1.0000   1.0000   1.0000   1.0000   1.0000
     1.0000   1.0000   1.0000   1.0000   1.0000   1.0000   1.0000   1.0000

          k = 0.0833-0.2406 0.0997 ( 29706 PWs)   bands (ev):

   -20.7067 -20.5769 -20.3353 -20.0659 -19.7937 -19.7605 -19.6484 -19.6424
   -19.6010 -19.5586 -19.5443 -19.5237 -19.4421 -19.3889 -19.3256 -19.3133
   -19.2591 -19.2368  -5.5764  -5.2407  -4.6633  -4.1269  -3.7826  -3.6673
    -3.3692  -3.3099  -3.2259  -3.1126  -3.0492  -2.5680  -2.4602  -2.1214
    -2.0726  -2.0291  -1.9931  -1.8603  -1.7631  -1.7252  -1.6379  -1.6379
    -1.5031  -1.4806  -1.4124  -1.2769  -1.1479  -0.7178  -0.6300  -0.4857
    -0.3154  -0.2238  -0.2079  -0.1347  -0.1155  -0.0597  -0.0112   0.0406
     0.0564   0.2501   0.2763   0.2877   0.2986   0.3520   0.3888   0.4524
     0.4976   0.5508   0.5945   0.6072   0.6298   0.8292   0.8390   0.8890

     occupation numbers 
     1.0000   1.0000   1.0000   1.0000   1.0000   1.0000   1.0000   1.0000
     1.0000   1.0000   1.0000   1.0000   1.0000   1.0000   1.0000   1.0000
     1.0000   1.0000   1.0000   1.0000   1.0000   1.0000   1.0000   1.0000
     1.0000   1.0000   1.0000   1.0000   1.0000   1.0000   1.0000   1.0000
     1.0000   1.0000   1.0000   1.0000   1.0000   1.0000   1.0000   1.0000
     1.0000   1.0000   1.0000   1.0000   1.0000   1.0000   1.0000   1.0000
     1.0000   1.0000   1.0000   1.0000   1.0000   1.0000   1.0000   1.0000
     1.0000   1.0000   1.0000   1.0000   1.0000   1.0000   1.0000   1.0000
     1.0000   1.0000   1.0000   1.0000   1.0000   1.0000   1.0000   1.0000

          k = 0.0833-0.2406 0.1661 ( 29732 PWs)   bands (ev):

   -20.6762 -20.6339 -20.2411 -20.1581 -19.7812 -19.7436 -19.6368 -19.6201
   -19.6000 -19.5772 -19.5576 -19.5562 -19.4039 -19.3597 -19.3512 -19.3407
   -19.2553 -19.2305  -5.4975  -5.3849  -4.4539  -4.2979  -3.7960  -3.6387
    -3.3130  -3.2824  -3.2548  -3.2335  -2.9132  -2.7122  -2.3166  -2.2160
    -2.1003  -2.0008  -1.9382  -1.8244  -1.7658  -1.6597  -1.6428  -1.6011
    -1.5799  -1.5608  -1.4527  -1.3760  -1.0180  -0.6945  -0.4968  -0.4465
    -0.3854  -0.3527  -0.2228  -0.2061  -0.0420  -0.0381  -0.0238   0.0348
     0.0827   0.2445   0.2833   0.2964   0.3150   0.3547   0.3629   0.4213
     0.5290   0.5375   0.5854   0.5917   0.6982   0.7966   0.8621   0.8681

     occupation numbers 
     1.0000   1.0000   1.0000   1.0000   1.0000   1.0000   1.0000   1.0000
     1.0000   1.0000   1.0000   1.0000   1.0000   1.0000   1.0000   1.0000
     1.0000   1.0000   1.0000   1.0000   1.0000   1.0000   1.0000   1.0000
     1.0000   1.0000   1.0000   1.0000   1.0000   1.0000   1.0000   1.0000
     1.0000   1.0000   1.0000   1.0000   1.0000   1.0000   1.0000   1.0000
     1.0000   1.0000   1.0000   1.0000   1.0000   1.0000   1.0000   1.0000
     1.0000   1.0000   1.0000   1.0000   1.0000   1.0000   1.0000   1.0000
     1.0000   1.0000   1.0000   1.0000   1.0000   1.0000   1.0000   1.0000
     1.0000   1.0000   1.0000   1.0000   1.0000   1.0000   1.0000   1.0000

          k = 0.0833-0.0481 0.0332 ( 29711 PWs)   bands (ev):

   -20.8188 -20.5860 -20.5006 -19.9879 -19.8928 -19.6300 -19.6197 -19.6008
   -19.5896 -19.5558 -19.5054 -19.4866 -19.4078 -19.3646 -19.3143 -19.2970
   -19.2525 -19.2366  -5.8397  -5.2408  -5.0361  -3.9839  -3.8304  -3.6065
    -3.5791  -3.3696  -3.2330  -3.0705  -3.0502  -2.9063  -2.1904  -2.0698
    -2.0229  -2.0036  -1.9885  -1.9820  -1.9165  -1.8258  -1.7654  -1.5511
    -1.4347  -1.3859  -1.3559  -1.3253  -1.2114  -0.7972  -0.6013  -0.4930
    -0.2671  -0.2219  -0.1620  -0.1609   0.0211   0.0854   0.2231   0.2316
     0.2553   0.3000   0.3027   0.3410   0.3955   0.4050   0.4122   0.4864
     0.5141   0.6048   0.6284   0.6647   0.7065   0.7108   0.9423   0.9549

     occupation numbers 
     1.0000   1.0000   1.0000   1.0000   1.0000   1.0000   1.0000   1.0000
     1.0000   1.0000   1.0000   1.0000   1.0000   1.0000   1.0000   1.0000
     1.0000   1.0000   1.0000   1.0000   1.0000   1.0000   1.0000   1.0000
     1.0000   1.0000   1.0000   1.0000   1.0000   1.0000   1.0000   1.0000
     1.0000   1.0000   1.0000   1.0000   1.0000   1.0000   1.0000   1.0000
     1.0000   1.0000   1.0000   1.0000   1.0000   1.0000   1.0000   1.0000
     1.0000   1.0000   1.0000   1.0000   1.0000   1.0000   1.0000   1.0000
     1.0000   1.0000   1.0000   1.0000   1.0000   1.0000   1.0000   1.0000
     1.0000   1.0000   1.0000   1.0000   1.0000   1.0000   1.0000   1.0000

          k = 0.0833-0.0481 0.0997 ( 29723 PWs)   bands (ev):

   -20.8026 -20.6607 -20.4058 -20.0917 -19.8055 -19.6261 -19.6221 -19.6128
   -19.6074 -19.5342 -19.5289 -19.4533 -19.4425 -19.3436 -19.3329 -19.2750
   -19.2670 -19.2348  -5.7960  -5.4269  -4.8186  -4.1719  -3.6977  -3.5655
    -3.5609  -3.3963  -3.3520  -3.2017  -2.9037  -2.7245  -2.3682  -2.1473
    -2.0768  -1.9847  -1.9477  -1.9450  -1.8885  -1.8142  -1.6400  -1.6342
    -1.4823  -1.4220  -1.3870  -1.1822  -1.0872  -0.9867  -0.6766  -0.4424
    -0.3728  -0.1472  -0.0518  -0.0393  -0.0191   0.1478   0.1781   0.1819
     0.2499   0.2831   0.2969   0.3426   0.3632   0.3762   0.4428   0.4782
     0.5418   0.5720   0.5977   0.6029   0.7722   0.7792   0.9185   0.9393

     occupation numbers 
     1.0000   1.0000   1.0000   1.0000   1.0000   1.0000   1.0000   1.0000
     1.0000   1.0000   1.0000   1.0000   1.0000   1.0000   1.0000   1.0000
     1.0000   1.0000   1.0000   1.0000   1.0000   1.0000   1.0000   1.0000
     1.0000   1.0000   1.0000   1.0000   1.0000   1.0000   1.0000   1.0000
     1.0000   1.0000   1.0000   1.0000   1.0000   1.0000   1.0000   1.0000
     1.0000   1.0000   1.0000   1.0000   1.0000   1.0000   1.0000   1.0000
     1.0000   1.0000   1.0000   1.0000   1.0000   1.0000   1.0000   1.0000
     1.0000   1.0000   1.0000   1.0000   1.0000   1.0000   1.0000   1.0000
     1.0000   1.0000   1.0000   1.0000   1.0000   1.0000   1.0000   1.0000

          k = 0.0833-0.0481 0.1661 ( 29755 PWs)   bands (ev):

   -20.7703 -20.7226 -20.3044 -20.1980 -19.7319 -19.6661 -19.6194 -19.6191
   -19.5964 -19.5598 -19.4989 -19.4768 -19.4193 -19.3752 -19.3041 -19.2873
   -19.2581 -19.2393  -5.7101  -5.5854  -4.5978  -4.3774  -3.6093  -3.5214
    -3.5131  -3.4276  -3.4248  -3.3316  -2.7241  -2.5547  -2.5370  -2.3250
    -2.0646  -2.0020  -1.9261  -1.8875  -1.8841  -1.8377  -1.6155  -1.5506
    -1.4744  -1.4451  -1.4089  -1.2576  -0.9967  -0.8621  -0.8509  -0.6273
    -0.1659  -0.1203  -0.0826   0.0676   0.0909   0.0921   0.0975   0.2071
     0.2273   0.2474   0.2947   0.3137   0.3474   0.3616   0.4796   0.4889
     0.5271   0.5507   0.5666   0.5839   0.8345   0.8423   0.8770   0.9056

     occupation numbers 
     1.0000   1.0000   1.0000   1.0000   1.0000   1.0000   1.0000   1.0000
     1.0000   1.0000   1.0000   1.0000   1.0000   1.0000   1.0000   1.0000
     1.0000   1.0000   1.0000   1.0000   1.0000   1.0000   1.0000   1.0000
     1.0000   1.0000   1.0000   1.0000   1.0000   1.0000   1.0000   1.0000
     1.0000   1.0000   1.0000   1.0000   1.0000   1.0000   1.0000   1.0000
     1.0000   1.0000   1.0000   1.0000   1.0000   1.0000   1.0000   1.0000
     1.0000   1.0000   1.0000   1.0000   1.0000   1.0000   1.0000   1.0000
     1.0000   1.0000   1.0000   1.0000   1.0000   1.0000   1.0000   1.0000
     1.0000   1.0000   1.0000   1.0000   1.0000   1.0000   1.0000   1.0000

          k = 0.2500 0.4330 0.0332 ( 29766 PWs)   bands (ev):

   -20.4346 -20.2852 -20.2357 -20.0544 -20.0387 -19.9766 -19.6695 -19.6694
   -19.6399 -19.6381 -19.6080 -19.4570 -19.4532 -19.4208 -19.4119 -19.3158
   -19.2777 -19.2687  -4.9663  -4.6129  -4.4975  -4.1185  -4.1047  -4.0662
    -3.2037  -2.9646  -2.9404  -2.8546  -2.7937  -2.6807  -2.4872  -2.4032
    -2.2845  -1.9476  -1.9367  -1.9254  -1.8959  -1.8840  -1.8438  -1.5264
    -1.4185  -1.3774  -1.2288  -0.9121  -0.8070  -0.7637  -0.7381  -0.7041
    -0.6576  -0.4897  -0.3060  -0.2346  -0.1994  -0.1029  -0.0473   0.0068
     0.0243   0.0446   0.1079   0.1147   0.1555   0.2014   0.3421   0.4003
     0.4345   0.4619   0.4756   0.5234   0.5965   0.7258   0.7287   0.7605

     occupation numbers 
     1.0000   1.0000   1.0000   1.0000   1.0000   1.0000   1.0000   1.0000
     1.0000   1.0000   1.0000   1.0000   1.0000   1.0000   1.0000   1.0000
     1.0000   1.0000   1.0000   1.0000   1.0000   1.0000   1.0000   1.0000
     1.0000   1.0000   1.0000   1.0000   1.0000   1.0000   1.0000   1.0000
     1.0000   1.0000   1.0000   1.0000   1.0000   1.0000   1.0000   1.0000
     1.0000   1.0000   1.0000   1.0000   1.0000   1.0000   1.0000   1.0000
     1.0000   1.0000   1.0000   1.0000   1.0000   1.0000   1.0000   1.0000
     1.0000   1.0000   1.0000   1.0000   1.0000   1.0000   1.0000   1.0000
     1.0000   1.0000   1.0000   1.0000   1.0000   1.0000   1.0000   1.0000

          k = 0.2500 0.4330 0.0997 ( 29769 PWs)   bands (ev):

   -20.4236 -20.3311 -20.1861 -20.0747 -20.0245 -19.9840 -19.6911 -19.6714
   -19.6553 -19.6014 -19.5914 -19.4815 -19.4690 -19.4200 -19.3843 -19.3034
   -19.2947 -19.2677  -4.9401  -4.7209  -4.3835  -4.1479  -4.0974  -4.0725
    -3.1652  -2.9896  -2.9505  -2.9227  -2.7652  -2.6938  -2.4943  -2.3147
    -2.2896  -1.9975  -1.9511  -1.8977  -1.8818  -1.8725  -1.8503  -1.6336
    -1.3260  -1.3111  -1.2260  -0.9051  -0.8676  -0.8357  -0.7153  -0.7010
    -0.6646  -0.3889  -0.3479  -0.2708  -0.1817  -0.1521  -0.1228   0.0134
     0.0431   0.0613   0.1243   0.1763   0.1854   0.2578   0.2662   0.4317
     0.4357   0.4578   0.4915   0.5105   0.5672   0.6836   0.7447   0.7770

     occupation numbers 
     1.0000   1.0000   1.0000   1.0000   1.0000   1.0000   1.0000   1.0000
     1.0000   1.0000   1.0000   1.0000   1.0000   1.0000   1.0000   1.0000
     1.0000   1.0000   1.0000   1.0000   1.0000   1.0000   1.0000   1.0000
     1.0000   1.0000   1.0000   1.0000   1.0000   1.0000   1.0000   1.0000
     1.0000   1.0000   1.0000   1.0000   1.0000   1.0000   1.0000   1.0000
     1.0000   1.0000   1.0000   1.0000   1.0000   1.0000   1.0000   1.0000
     1.0000   1.0000   1.0000   1.0000   1.0000   1.0000   1.0000   1.0000
     1.0000   1.0000   1.0000   1.0000   1.0000   1.0000   1.0000   1.0000
     1.0000   1.0000   1.0000   1.0000   1.0000   1.0000   1.0000   1.0000

          k = 0.2500 0.4330 0.1661 ( 29766 PWs)   bands (ev):

   -20.4020 -20.3707 -20.1406 -20.1030 -20.0103 -19.9962 -19.6998 -19.6930
   -19.6313 -19.6055 -19.5587 -19.5180 -19.4586 -19.4374 -19.3494 -19.3189
   -19.2874 -19.2744  -4.8887  -4.8145  -4.2815  -4.2013  -4.0905  -4.0818
    -3.0963  -3.0138  -2.9958  -2.9734  -2.7440  -2.7170  -2.4381  -2.3698
    -2.1771  -2.0782  -1.9401  -1.9199  -1.8611  -1.8555  -1.8164  -1.7320
    -1.2672  -1.2472  -1.1764  -1.0307  -0.8911  -0.8695  -0.6688  -0.6460
    -0.6333  -0.5169  -0.3160  -0.2854  -0.1745  -0.1687  -0.0960  -0.0212
     0.0605   0.0695   0.1208   0.1693   0.2308   0.2323   0.3507   0.4313
     0.4360   0.4391   0.4713   0.5214   0.5689   0.6287   0.7658   0.7781

     occupation numbers 
     1.0000   1.0000   1.0000   1.0000   1.0000   1.0000   1.0000   1.0000
     1.0000   1.0000   1.0000   1.0000   1.0000   1.0000   1.0000   1.0000
     1.0000   1.0000   1.0000   1.0000   1.0000   1.0000   1.0000   1.0000
     1.0000   1.0000   1.0000   1.0000   1.0000   1.0000   1.0000   1.0000
     1.0000   1.0000   1.0000   1.0000   1.0000   1.0000   1.0000   1.0000
     1.0000   1.0000   1.0000   1.0000   1.0000   1.0000   1.0000   1.0000
     1.0000   1.0000   1.0000   1.0000   1.0000   1.0000   1.0000   1.0000
     1.0000   1.0000   1.0000   1.0000   1.0000   1.0000   1.0000   1.0000
     1.0000   1.0000   1.0000   1.0000   1.0000   1.0000   1.0000   1.0000

          k = 0.2500 0.6255 0.0332 ( 29781 PWs)   bands (ev):

   -20.3087 -20.2267 -20.1800 -20.1496 -20.0798 -20.0539 -19.6956 -19.6838
   -19.6709 -19.5991 -19.5844 -19.5069 -19.4610 -19.3839 -19.3717 -19.3439
   -19.3129 -19.2631  -4.6875  -4.4963  -4.3981  -4.3378  -4.2352  -4.1078
    -3.0780  -2.9912  -2.9155  -2.8885  -2.7550  -2.5301  -2.4604  -2.4332
    -2.3044  -2.0785  -2.0381  -1.9680  -1.8996  -1.7680  -1.7376  -1.6493
    -1.5149  -1.5014  -1.1806  -0.9482  -0.8259  -0.6360  -0.5868  -0.5649
    -0.4683  -0.4319  -0.3832  -0.3310  -0.2760  -0.2322  -0.0935  -0.0557
     0.0138   0.0255   0.0529   0.0763   0.1294   0.2004   0.3691   0.3833
     0.4172   0.4197   0.5206   0.5461   0.5951   0.6331   0.6674   0.7767

     occupation numbers 
     1.0000   1.0000   1.0000   1.0000   1.0000   1.0000   1.0000   1.0000
     1.0000   1.0000   1.0000   1.0000   1.0000   1.0000   1.0000   1.0000
     1.0000   1.0000   1.0000   1.0000   1.0000   1.0000   1.0000   1.0000
     1.0000   1.0000   1.0000   1.0000   1.0000   1.0000   1.0000   1.0000
     1.0000   1.0000   1.0000   1.0000   1.0000   1.0000   1.0000   1.0000
     1.0000   1.0000   1.0000   1.0000   1.0000   1.0000   1.0000   1.0000
     1.0000   1.0000   1.0000   1.0000   1.0000   1.0000   1.0000   1.0000
     1.0000   1.0000   1.0000   1.0000   1.0000   1.0000   1.0000   1.0000
     1.0000   1.0000   1.0000   1.0000   1.0000   1.0000   1.0000   1.0000

          k = 0.2500 0.6255 0.0997 ( 29772 PWs)   bands (ev):

   -20.2980 -20.2494 -20.1828 -20.1174 -20.1026 -20.0490 -19.6952 -19.6691
   -19.6459 -19.6213 -19.6123 -19.5203 -19.4482 -19.3681 -19.3545 -19.3466
   -19.3268 -19.2682  -4.6681  -4.5461  -4.3960  -4.2818  -4.2601  -4.1088
    -3.0245  -3.0175  -2.9340  -2.8588  -2.8094  -2.6015  -2.4549  -2.3764
    -2.2561  -2.0752  -2.0740  -1.9580  -1.8978  -1.7669  -1.7188  -1.7026
    -1.5122  -1.4794  -1.1275  -0.8919  -0.7930  -0.7204  -0.6475  -0.5737
    -0.5278  -0.5051  -0.3639  -0.3351  -0.2395  -0.1983  -0.0837  -0.0462
    -0.0033   0.0409   0.0679   0.1352   0.1637   0.1942   0.3489   0.3898
     0.3948   0.4093   0.5028   0.5922   0.5999   0.6276   0.6357   0.7712

     occupation numbers 
     1.0000   1.0000   1.0000   1.0000   1.0000   1.0000   1.0000   1.0000
     1.0000   1.0000   1.0000   1.0000   1.0000   1.0000   1.0000   1.0000
     1.0000   1.0000   1.0000   1.0000   1.0000   1.0000   1.0000   1.0000
     1.0000   1.0000   1.0000   1.0000   1.0000   1.0000   1.0000   1.0000
     1.0000   1.0000   1.0000   1.0000   1.0000   1.0000   1.0000   1.0000
     1.0000   1.0000   1.0000   1.0000   1.0000   1.0000   1.0000   1.0000
     1.0000   1.0000   1.0000   1.0000   1.0000   1.0000   1.0000   1.0000
     1.0000   1.0000   1.0000   1.0000   1.0000   1.0000   1.0000   1.0000
     1.0000   1.0000   1.0000   1.0000   1.0000   1.0000   1.0000   1.0000

          k = 0.2500 0.6255 0.1661 ( 29774 PWs)   bands (ev):

   -20.2792 -20.2719 -20.1839 -20.1256 -20.0921 -20.0449 -19.6913 -19.6584
   -19.6402 -19.6335 -19.6140 -19.5517 -19.4212 -19.3760 -19.3537 -19.3359
   -19.3208 -19.2811  -4.6298  -4.5957  -4.3953  -4.3243  -4.1959  -4.1149
    -3.0278  -3.0044  -2.9370  -2.8691  -2.7855  -2.6866  -2.4306  -2.3415
    -2.2513  -2.1024  -2.0445  -1.9430  -1.8967  -1.8182  -1.7231  -1.6843
    -1.5068  -1.4770  -1.0181  -0.8682  -0.8090  -0.7247  -0.7222  -0.6281
    -0.5942  -0.5199  -0.3557  -0.3294  -0.2269  -0.1853  -0.0803  -0.0413
    -0.0251   0.0677   0.0971   0.1761   0.1861   0.2606   0.2796   0.3605
     0.4107   0.4507   0.4560   0.5665   0.5796   0.6503   0.6604   0.7504

     occupation numbers 
     1.0000   1.0000   1.0000   1.0000   1.0000   1.0000   1.0000   1.0000
     1.0000   1.0000   1.0000   1.0000   1.0000   1.0000   1.0000   1.0000
     1.0000   1.0000   1.0000   1.0000   1.0000   1.0000   1.0000   1.0000
     1.0000   1.0000   1.0000   1.0000   1.0000   1.0000   1.0000   1.0000
     1.0000   1.0000   1.0000   1.0000   1.0000   1.0000   1.0000   1.0000
     1.0000   1.0000   1.0000   1.0000   1.0000   1.0000   1.0000   1.0000
     1.0000   1.0000   1.0000   1.0000   1.0000   1.0000   1.0000   1.0000
     1.0000   1.0000   1.0000   1.0000   1.0000   1.0000   1.0000   1.0000
     1.0000   1.0000   1.0000   1.0000   1.0000   1.0000   1.0000   1.0000

          k = 0.2500-0.3368 0.0332 ( 29746 PWs)   bands (ev):

   -20.5441 -20.3571 -20.3118 -20.0141 -19.9554 -19.8845 -19.6737 -19.6553
   -19.6407 -19.6325 -19.5596 -19.4669 -19.4599 -19.4364 -19.4104 -19.2831
   -19.2815 -19.2530  -5.2116  -4.7582  -4.6463  -4.0928  -3.9275  -3.8928
    -3.2953  -3.1068  -3.0219  -2.8987  -2.7613  -2.6816  -2.5413  -2.4633
    -2.0906  -2.0218  -1.9168  -1.9118  -1.8949  -1.7805  -1.7477  -1.5379
    -1.3789  -1.3405  -1.1784  -1.0374  -0.9101  -0.8878  -0.8018  -0.6860
    -0.6002  -0.4924  -0.2517  -0.2346  -0.1891  -0.1355  -0.0335   0.0502
     0.1169   0.1602   0.1799   0.2022   0.2140   0.2849   0.2904   0.3975
     0.4079   0.4419   0.5156   0.5329   0.6769   0.7220   0.7748   0.8158

     occupation numbers 
     1.0000   1.0000   1.0000   1.0000   1.0000   1.0000   1.0000   1.0000
     1.0000   1.0000   1.0000   1.0000   1.0000   1.0000   1.0000   1.0000
     1.0000   1.0000   1.0000   1.0000   1.0000   1.0000   1.0000   1.0000
     1.0000   1.0000   1.0000   1.0000   1.0000   1.0000   1.0000   1.0000
     1.0000   1.0000   1.0000   1.0000   1.0000   1.0000   1.0000   1.0000
     1.0000   1.0000   1.0000   1.0000   1.0000   1.0000   1.0000   1.0000
     1.0000   1.0000   1.0000   1.0000   1.0000   1.0000   1.0000   1.0000
     1.0000   1.0000   1.0000   1.0000   1.0000   1.0000   1.0000   1.0000
     1.0000   1.0000   1.0000   1.0000   1.0000   1.0000   1.0000   1.0000

          k = 0.2500-0.3368 0.0997 ( 29748 PWs)   bands (ev):

   -20.5322 -20.4157 -20.2484 -20.0083 -19.9910 -19.8738 -19.6829 -19.6700
   -19.6548 -19.5999 -19.5204 -19.4823 -19.4686 -19.4397 -19.4195 -19.2750
   -19.2714 -19.2659  -5.1799  -4.9011  -4.5036  -4.0774  -3.9805  -3.8887
    -3.2830  -3.0810  -3.0168  -2.9141  -2.8280  -2.7744  -2.4325  -2.3736
    -2.1399  -1.9755  -1.9608  -1.9218  -1.8716  -1.8639  -1.7109  -1.5069
    -1.4575  -1.2435  -1.1717  -1.0282  -0.9883  -0.9081  -0.7942  -0.6282
    -0.6084  -0.3930  -0.2867  -0.2832  -0.2027  -0.1884  -0.0789   0.0894
     0.1347   0.1431   0.2033   0.2102   0.2212   0.2477   0.3407   0.3964
     0.4320   0.4618   0.5061   0.5319   0.6307   0.7294   0.7596   0.8338

     occupation numbers 
     1.0000   1.0000   1.0000   1.0000   1.0000   1.0000   1.0000   1.0000
     1.0000   1.0000   1.0000   1.0000   1.0000   1.0000   1.0000   1.0000
     1.0000   1.0000   1.0000   1.0000   1.0000   1.0000   1.0000   1.0000
     1.0000   1.0000   1.0000   1.0000   1.0000   1.0000   1.0000   1.0000
     1.0000   1.0000   1.0000   1.0000   1.0000   1.0000   1.0000   1.0000
     1.0000   1.0000   1.0000   1.0000   1.0000   1.0000   1.0000   1.0000
     1.0000   1.0000   1.0000   1.0000   1.0000   1.0000   1.0000   1.0000
     1.0000   1.0000   1.0000   1.0000   1.0000   1.0000   1.0000   1.0000
     1.0000   1.0000   1.0000   1.0000   1.0000   1.0000   1.0000   1.0000

          k = 0.2500-0.3368 0.1661 ( 29744 PWs)   bands (ev):

   -20.5080 -20.4649 -20.1856 -20.0735 -19.9696 -19.8726 -19.6904 -19.6763
   -19.6410 -19.5832 -19.5073 -19.4966 -19.4766 -19.4703 -19.3813 -19.2962
   -19.2760 -19.2506  -5.1182  -5.0216  -4.3698  -4.1077  -4.0629  -3.8597
    -3.2287  -3.0431  -3.0224  -2.9352  -2.9097  -2.8572  -2.3004  -2.2599
    -2.2152  -2.0276  -1.9866  -1.9242  -1.8711  -1.8408  -1.6829  -1.6247
    -1.3366  -1.2330  -1.1650  -1.1548  -0.9590  -0.9110  -0.7229  -0.6593
    -0.5686  -0.3672  -0.2875  -0.2539  -0.2315  -0.1915  -0.1157  -0.0330
     0.1393   0.1583   0.1830   0.2369   0.2429   0.2979   0.3424   0.3735
     0.4727   0.4854   0.4994   0.5674   0.5794   0.6779   0.7836   0.8453

     occupation numbers 
     1.0000   1.0000   1.0000   1.0000   1.0000   1.0000   1.0000   1.0000
     1.0000   1.0000   1.0000   1.0000   1.0000   1.0000   1.0000   1.0000
     1.0000   1.0000   1.0000   1.0000   1.0000   1.0000   1.0000   1.0000
     1.0000   1.0000   1.0000   1.0000   1.0000   1.0000   1.0000   1.0000
     1.0000   1.0000   1.0000   1.0000   1.0000   1.0000   1.0000   1.0000
     1.0000   1.0000   1.0000   1.0000   1.0000   1.0000   1.0000   1.0000
     1.0000   1.0000   1.0000   1.0000   1.0000   1.0000   1.0000   1.0000
     1.0000   1.0000   1.0000   1.0000   1.0000   1.0000   1.0000   1.0000
     1.0000   1.0000   1.0000   1.0000   1.0000   1.0000   1.0000   1.0000

          k = 0.2500-0.1443 0.0332 ( 29726 PWs)   bands (ev):

   -20.6917 -20.4745 -20.4122 -19.9442 -19.9257 -19.7549 -19.6620 -19.6266
   -19.6174 -19.5625 -19.5556 -19.5040 -19.4448 -19.4347 -19.3366 -19.3004
   -19.2483 -19.2476  -5.5460  -5.0010  -4.8498  -3.9892  -3.8021  -3.7513
    -3.4098  -3.1960  -3.1857  -3.1498  -2.8302  -2.7493  -2.4796  -2.2128
    -2.0472  -2.0137  -1.9160  -1.8218  -1.8065  -1.7362  -1.7102  -1.6837
    -1.5201  -1.4494  -1.1216  -1.1160  -1.0377  -1.0065  -0.8628  -0.5341
    -0.3005  -0.2965  -0.2002  -0.1951  -0.0811  -0.0780   0.0575   0.0878
     0.0951   0.1162   0.2569   0.2985   0.3395   0.3456   0.3489   0.3873
     0.4402   0.5090   0.5907   0.6408   0.6475   0.7812   0.8087   0.9094

     occupation numbers 
     1.0000   1.0000   1.0000   1.0000   1.0000   1.0000   1.0000   1.0000
     1.0000   1.0000   1.0000   1.0000   1.0000   1.0000   1.0000   1.0000
     1.0000   1.0000   1.0000   1.0000   1.0000   1.0000   1.0000   1.0000
     1.0000   1.0000   1.0000   1.0000   1.0000   1.0000   1.0000   1.0000
     1.0000   1.0000   1.0000   1.0000   1.0000   1.0000   1.0000   1.0000
     1.0000   1.0000   1.0000   1.0000   1.0000   1.0000   1.0000   1.0000
     1.0000   1.0000   1.0000   1.0000   1.0000   1.0000   1.0000   1.0000
     1.0000   1.0000   1.0000   1.0000   1.0000   1.0000   1.0000   1.0000
     1.0000   1.0000   1.0000   1.0000   1.0000   1.0000   1.0000   1.0000

          k = 0.2500-0.1443 0.0997 ( 29748 PWs)   bands (ev):

   -20.6777 -20.5435 -20.3306 -20.0207 -19.9000 -19.7206 -19.6374 -19.6339
   -19.6083 -19.5976 -19.5799 -19.4710 -19.4610 -19.4062 -19.3673 -19.2871
   -19.2695 -19.2314  -5.5075  -5.1727  -4.6659  -3.9826  -3.9512  -3.6551
    -3.4333  -3.2281  -3.1993  -3.0278  -2.9082  -2.6473  -2.6333  -2.1016
    -2.0538  -1.9230  -1.8758  -1.8742  -1.8505  -1.8206  -1.7131  -1.6201
    -1.5908  -1.4186  -1.2578  -1.1856  -0.9707  -0.8307  -0.7368  -0.6802
    -0.3227  -0.2830  -0.2224  -0.1942  -0.1017  -0.0441  -0.0298   0.0955
     0.1606   0.1758   0.2297   0.2955   0.3159   0.3255   0.3745   0.3746
     0.4088   0.5414   0.5675   0.7037   0.7042   0.7331   0.7660   0.9153

     occupation numbers 
     1.0000   1.0000   1.0000   1.0000   1.0000   1.0000   1.0000   1.0000
     1.0000   1.0000   1.0000   1.0000   1.0000   1.0000   1.0000   1.0000
     1.0000   1.0000   1.0000   1.0000   1.0000   1.0000   1.0000   1.0000
     1.0000   1.0000   1.0000   1.0000   1.0000   1.0000   1.0000   1.0000
     1.0000   1.0000   1.0000   1.0000   1.0000   1.0000   1.0000   1.0000
     1.0000   1.0000   1.0000   1.0000   1.0000   1.0000   1.0000   1.0000
     1.0000   1.0000   1.0000   1.0000   1.0000   1.0000   1.0000   1.0000
     1.0000   1.0000   1.0000   1.0000   1.0000   1.0000   1.0000   1.0000
     1.0000   1.0000   1.0000   1.0000   1.0000   1.0000   1.0000   1.0000

          k = 0.2500-0.1443 0.1661 ( 29745 PWs)   bands (ev):

   -20.6493 -20.6007 -20.2451 -20.1181 -19.8675 -19.6859 -19.6446 -19.6309
   -19.6177 -19.6059 -19.5816 -19.5063 -19.4204 -19.4027 -19.3682 -19.2961
   -19.2814 -19.2212  -5.4325  -5.3173  -4.4842  -4.1811  -3.9305  -3.5445
    -3.4287  -3.2726  -3.1938  -3.0525  -2.9093  -2.7623  -2.4738  -2.1379
    -2.0257  -1.9145  -1.9105  -1.8976  -1.8314  -1.8055  -1.6352  -1.6333
    -1.5431  -1.4108  -1.4077  -1.3438  -0.9587  -0.6808  -0.6221  -0.5773
    -0.3787  -0.2577  -0.2499  -0.2319  -0.1954  -0.0679  -0.0242   0.0268
     0.0680   0.2410   0.2966   0.3094   0.3242   0.3348   0.3573   0.3929
     0.4190   0.5348   0.5694   0.6847   0.7064   0.7607   0.7628   0.9087

     occupation numbers 
     1.0000   1.0000   1.0000   1.0000   1.0000   1.0000   1.0000   1.0000
     1.0000   1.0000   1.0000   1.0000   1.0000   1.0000   1.0000   1.0000
     1.0000   1.0000   1.0000   1.0000   1.0000   1.0000   1.0000   1.0000
     1.0000   1.0000   1.0000   1.0000   1.0000   1.0000   1.0000   1.0000
     1.0000   1.0000   1.0000   1.0000   1.0000   1.0000   1.0000   1.0000
     1.0000   1.0000   1.0000   1.0000   1.0000   1.0000   1.0000   1.0000
     1.0000   1.0000   1.0000   1.0000   1.0000   1.0000   1.0000   1.0000
     1.0000   1.0000   1.0000   1.0000   1.0000   1.0000   1.0000   1.0000
     1.0000   1.0000   1.0000   1.0000   1.0000   1.0000   1.0000   1.0000

          k = 0.4167 0.7217 0.0332 ( 29779 PWs)   bands (ev):

   -20.2916 -20.2853 -20.2614 -20.1370 -20.0902 -19.9348 -19.7181 -19.6480
   -19.6362 -19.6179 -19.5499 -19.5230 -19.5159 -19.3782 -19.3777 -19.3455
   -19.3269 -19.2304  -4.6548  -4.6526  -4.5653  -4.3469  -4.2330  -3.8167
    -3.0231  -3.0207  -2.9479  -2.9070  -2.6169  -2.5970  -2.5771  -2.4685
    -2.4454  -2.1052  -2.0678  -1.9857  -1.7708  -1.6945  -1.6680  -1.5047
    -1.4983  -1.4097  -1.1005  -1.0722  -0.7210  -0.6462  -0.6413  -0.6347
    -0.5973  -0.5898  -0.4418  -0.4348  -0.3370  -0.2806  -0.1607   0.0023
     0.0576   0.1511   0.1520   0.1914   0.2254   0.2264   0.3080   0.3747
     0.3838   0.4451   0.5016   0.5470   0.5809   0.6517   0.6832   0.8422

     occupation numbers 
     1.0000   1.0000   1.0000   1.0000   1.0000   1.0000   1.0000   1.0000
     1.0000   1.0000   1.0000   1.0000   1.0000   1.0000   1.0000   1.0000
[...]
    -2.1593  -2.0903  -2.0599  -1.9162  -1.8241  -1.7639  -1.7226  -1.6700
    -1.3454  -1.2007  -1.1988  -1.1504  -0.9326  -0.9152  -0.8006  -0.6054
    -0.4634  -0.4606  -0.2867  -0.2476  -0.1915  -0.1757  -0.1259  -0.0676
     0.1287   0.1386   0.1836   0.2004   0.2656   0.3122   0.3187   0.4116
     0.4428   0.4964   0.5250   0.5463   0.6257   0.6345   0.7945   0.8462

     occupation numbers 
     1.0000   1.0000   1.0000   1.0000   1.0000   1.0000   1.0000   1.0000
     1.0000   1.0000   1.0000   1.0000   1.0000   1.0000   1.0000   1.0000
     1.0000   1.0000   1.0000   1.0000   1.0000   1.0000   1.0000   1.0000
     1.0000   1.0000   1.0000   1.0000   1.0000   1.0000   1.0000   1.0000
     1.0000   1.0000   1.0000   1.0000   1.0000   1.0000   1.0000   1.0000
     1.0000   1.0000   1.0000   1.0000   1.0000   1.0000   1.0000   1.0000
     1.0000   1.0000   1.0000   1.0000   1.0000   1.0000   1.0000   1.0000
     1.0000   1.0000   1.0000   1.0000   1.0000   1.0000   1.0000   1.0000
     1.0000   1.0000   1.0000   1.0000   1.0000   1.0000   1.0000   1.0000

          k = 0.1667-0.3849-0.1661 ( 29744 PWs)   bands (ev):

   -20.5080 -20.4649 -20.1856 -20.0735 -19.9696 -19.8726 -19.6904 -19.6763
   -19.6410 -19.5832 -19.5073 -19.4966 -19.4766 -19.4703 -19.3813 -19.2962
   -19.2760 -19.2506  -5.1182  -5.0216  -4.3698  -4.1077  -4.0629  -3.8597
    -3.2287  -3.0431  -3.0224  -2.9352  -2.9097  -2.8572  -2.3004  -2.2599
    -2.2152  -2.0276  -1.9866  -1.9242  -1.8711  -1.8408  -1.6829  -1.6247
    -1.3366  -1.2330  -1.1650  -1.1548  -0.9590  -0.9110  -0.7229  -0.6593
    -0.5686  -0.3672  -0.2875  -0.2539  -0.2315  -0.1915  -0.1157  -0.0330
     0.1393   0.1583   0.1830   0.2369   0.2429   0.2979   0.3424   0.3735
     0.4727   0.4854   0.4994   0.5674   0.5794   0.6779   0.7836   0.8453

     occupation numbers 
     1.0000   1.0000   1.0000   1.0000   1.0000   1.0000   1.0000   1.0000
     1.0000   1.0000   1.0000   1.0000   1.0000   1.0000   1.0000   1.0000
     1.0000   1.0000   1.0000   1.0000   1.0000   1.0000   1.0000   1.0000
     1.0000   1.0000   1.0000   1.0000   1.0000   1.0000   1.0000   1.0000
     1.0000   1.0000   1.0000   1.0000   1.0000   1.0000   1.0000   1.0000
     1.0000   1.0000   1.0000   1.0000   1.0000   1.0000   1.0000   1.0000
     1.0000   1.0000   1.0000   1.0000   1.0000   1.0000   1.0000   1.0000
     1.0000   1.0000   1.0000   1.0000   1.0000   1.0000   1.0000   1.0000
     1.0000   1.0000   1.0000   1.0000   1.0000   1.0000   1.0000   1.0000

          k =-0.2500 0.1443 0.0332 ( 29726 PWs)   bands (ev):

   -20.6909 -20.4870 -20.3954 -20.0037 -19.8361 -19.7862 -19.6734 -19.6403
   -19.5958 -19.5480 -19.5476 -19.5231 -19.4828 -19.3985 -19.3206 -19.3119
   -19.2712 -19.2313  -5.5460  -5.0262  -4.8085  -4.0604  -3.8255  -3.6461
    -3.3586  -3.2547  -3.1794  -3.1403  -3.0105  -2.5818  -2.3799  -2.3281
    -2.0751  -2.0034  -1.9816  -1.8449  -1.7544  -1.7299  -1.6439  -1.6213
    -1.5035  -1.4531  -1.2688  -1.2061  -1.1463  -0.8156  -0.8096  -0.3698
    -0.2987  -0.2980  -0.2474  -0.1814  -0.1282  -0.0739  -0.0519   0.0048
     0.0220   0.1960   0.3021   0.3102   0.3280   0.3805   0.3838   0.3921
     0.4745   0.4948   0.5771   0.6027   0.6116   0.8253   0.8302   0.8905

     occupation numbers 
     1.0000   1.0000   1.0000   1.0000   1.0000   1.0000   1.0000   1.0000
     1.0000   1.0000   1.0000   1.0000   1.0000   1.0000   1.0000   1.0000
     1.0000   1.0000   1.0000   1.0000   1.0000   1.0000   1.0000   1.0000
     1.0000   1.0000   1.0000   1.0000   1.0000   1.0000   1.0000   1.0000
     1.0000   1.0000   1.0000   1.0000   1.0000   1.0000   1.0000   1.0000
     1.0000   1.0000   1.0000   1.0000   1.0000   1.0000   1.0000   1.0000
     1.0000   1.0000   1.0000   1.0000   1.0000   1.0000   1.0000   1.0000
     1.0000   1.0000   1.0000   1.0000   1.0000   1.0000   1.0000   1.0000
     1.0000   1.0000   1.0000   1.0000   1.0000   1.0000   1.0000   1.0000

          k =-0.2500 0.1443 0.0997 ( 29748 PWs)   bands (ev):

   -20.6752 -20.5527 -20.3081 -20.0770 -19.8144 -19.7555 -19.6703 -19.6480
   -19.5913 -19.5695 -19.5552 -19.5190 -19.4822 -19.3668 -19.3438 -19.2995
   -19.2941 -19.2212  -5.5070  -5.1866  -4.6023  -4.1707  -3.8775  -3.5227
    -3.3379  -3.2806  -3.1762  -3.1759  -3.0592  -2.5468  -2.4183  -2.2008
    -2.1123  -2.0942  -1.9248  -1.8622  -1.7650  -1.6631  -1.5729  -1.5687
    -1.5366  -1.5161  -1.4091  -1.2688  -1.2069  -0.6452  -0.6227  -0.3676
    -0.3260  -0.2904  -0.2496  -0.2098  -0.1771  -0.1140  -0.0964  -0.0638
    -0.0146   0.2746   0.3071   0.3125   0.3317   0.3578   0.4012   0.4405
     0.4449   0.5159   0.5630   0.6026   0.6124   0.8286   0.8587   0.8625

     occupation numbers 
     1.0000   1.0000   1.0000   1.0000   1.0000   1.0000   1.0000   1.0000
     1.0000   1.0000   1.0000   1.0000   1.0000   1.0000   1.0000   1.0000
     1.0000   1.0000   1.0000   1.0000   1.0000   1.0000   1.0000   1.0000
     1.0000   1.0000   1.0000   1.0000   1.0000   1.0000   1.0000   1.0000
     1.0000   1.0000   1.0000   1.0000   1.0000   1.0000   1.0000   1.0000
     1.0000   1.0000   1.0000   1.0000   1.0000   1.0000   1.0000   1.0000
     1.0000   1.0000   1.0000   1.0000   1.0000   1.0000   1.0000   1.0000
     1.0000   1.0000   1.0000   1.0000   1.0000   1.0000   1.0000   1.0000
     1.0000   1.0000   1.0000   1.0000   1.0000   1.0000   1.0000   1.0000

          k =-0.2500 0.1443 0.1661 ( 29745 PWs)   bands (ev):

   -20.6450 -20.6072 -20.2148 -20.1591 -19.8406 -19.6903 -19.6552 -19.6494
   -19.6292 -19.5762 -19.5523 -19.5394 -19.4415 -19.3838 -19.3322 -19.3260
   -19.2838 -19.2178  -5.4300  -5.3240  -4.3904  -4.3153  -3.9100  -3.4672
    -3.3965  -3.2866  -3.1829  -3.1778  -2.9523  -2.7028  -2.3451  -2.1572
    -2.1570  -2.0179  -1.9080  -1.8418  -1.8147  -1.6648  -1.6294  -1.5480
    -1.5320  -1.4971  -1.4724  -1.3745  -1.0864  -0.5290  -0.4886  -0.4682
    -0.4371  -0.3575  -0.2734  -0.2216  -0.1824  -0.0842  -0.0621  -0.0340
    -0.0193   0.2914   0.3021   0.3214   0.3264   0.3424   0.3833   0.4112
     0.4617   0.4938   0.5907   0.6362   0.6416   0.8045   0.8154   0.8907

     occupation numbers 
     1.0000   1.0000   1.0000   1.0000   1.0000   1.0000   1.0000   1.0000
     1.0000   1.0000   1.0000   1.0000   1.0000   1.0000   1.0000   1.0000
     1.0000   1.0000   1.0000   1.0000   1.0000   1.0000   1.0000   1.0000
     1.0000   1.0000   1.0000   1.0000   1.0000   1.0000   1.0000   1.0000
     1.0000   1.0000   1.0000   1.0000   1.0000   1.0000   1.0000   1.0000
     1.0000   1.0000   1.0000   1.0000   1.0000   1.0000   1.0000   1.0000
     1.0000   1.0000   1.0000   1.0000   1.0000   1.0000   1.0000   1.0000
     1.0000   1.0000   1.0000   1.0000   1.0000   1.0000   1.0000   1.0000
     1.0000   1.0000   1.0000   1.0000   1.0000   1.0000   1.0000   1.0000

          k =-0.4167-0.7217 0.0332 ( 29779 PWs)   bands (ev):

   -20.2916 -20.2853 -20.2614 -20.1370 -20.0902 -19.9348 -19.7181 -19.6480
   -19.6362 -19.6179 -19.5499 -19.5230 -19.5159 -19.3782 -19.3777 -19.3455
   -19.3269 -19.2304  -4.6548  -4.6526  -4.5653  -4.3469  -4.2330  -3.8167
    -3.0231  -3.0207  -2.9479  -2.9070  -2.6169  -2.5970  -2.5771  -2.4685
    -2.4454  -2.1052  -2.0678  -1.9857  -1.7708  -1.6945  -1.6680  -1.5047
    -1.4983  -1.4097  -1.1005  -1.0722  -0.7210  -0.6462  -0.6413  -0.6347
    -0.5973  -0.5898  -0.4418  -0.4348  -0.3370  -0.2806  -0.1607   0.0023
     0.0576   0.1511   0.1520   0.1914   0.2254   0.2264   0.3080   0.3747
     0.3838   0.4451   0.5016   0.5470   0.5809   0.6517   0.6832   0.8422

     occupation numbers 
     1.0000   1.0000   1.0000   1.0000   1.0000   1.0000   1.0000   1.0000
     1.0000   1.0000   1.0000   1.0000   1.0000   1.0000   1.0000   1.0000
     1.0000   1.0000   1.0000   1.0000   1.0000   1.0000   1.0000   1.0000
     1.0000   1.0000   1.0000   1.0000   1.0000   1.0000   1.0000   1.0000
     1.0000   1.0000   1.0000   1.0000   1.0000   1.0000   1.0000   1.0000
     1.0000   1.0000   1.0000   1.0000   1.0000   1.0000   1.0000   1.0000
     1.0000   1.0000   1.0000   1.0000   1.0000   1.0000   1.0000   1.0000
     1.0000   1.0000   1.0000   1.0000   1.0000   1.0000   1.0000   1.0000
     1.0000   1.0000   1.0000   1.0000   1.0000   1.0000   1.0000   1.0000

          k =-0.4167-0.7217 0.0997 ( 29776 PWs)   bands (ev):

   -20.2910 -20.2710 -20.2669 -20.1804 -20.0431 -19.9445 -19.7021 -19.6701
   -19.6579 -19.5916 -19.5831 -19.5017 -19.4927 -19.3936 -19.3859 -19.3545
   -19.3001 -19.2380  -4.6428  -4.6325  -4.5773  -4.4476  -4.1136  -3.8457
    -3.0809  -3.0713  -2.8631  -2.8603  -2.6620  -2.6199  -2.5797  -2.4726
    -2.3826  -2.1491  -2.0797  -1.9082  -1.8676  -1.7188  -1.5832  -1.5057
    -1.4833  -1.4196  -1.0759  -1.0101  -0.7271  -0.6977  -0.6691  -0.6482
    -0.6396  -0.5856  -0.5558  -0.4269  -0.3202  -0.1879  -0.1112   0.0095
     0.0435   0.1455   0.1595   0.2313   0.2486   0.2551   0.2684   0.3484
     0.3664   0.4319   0.4905   0.5272   0.5934   0.6387   0.7246   0.8285

     occupation numbers 
     1.0000   1.0000   1.0000   1.0000   1.0000   1.0000   1.0000   1.0000
     1.0000   1.0000   1.0000   1.0000   1.0000   1.0000   1.0000   1.0000
     1.0000   1.0000   1.0000   1.0000   1.0000   1.0000   1.0000   1.0000
     1.0000   1.0000   1.0000   1.0000   1.0000   1.0000   1.0000   1.0000
     1.0000   1.0000   1.0000   1.0000   1.0000   1.0000   1.0000   1.0000
     1.0000   1.0000   1.0000   1.0000   1.0000   1.0000   1.0000   1.0000
     1.0000   1.0000   1.0000   1.0000   1.0000   1.0000   1.0000   1.0000
     1.0000   1.0000   1.0000   1.0000   1.0000   1.0000   1.0000   1.0000
     1.0000   1.0000   1.0000   1.0000   1.0000   1.0000   1.0000   1.0000

          k =-0.4167-0.7217 0.1661 ( 29767 PWs)   bands (ev):

   -20.2849 -20.2758 -20.2485 -20.2180 -20.0000 -19.9661 -19.6805 -19.6764
   -19.6726 -19.6343 -19.5471 -19.5159 -19.4550 -19.4205 -19.3796 -19.3658
   -19.2742 -19.2529  -4.6219  -4.5979  -4.5920  -4.5301  -4.0004  -3.9074
    -3.1123  -3.1090  -2.8018  -2.7754  -2.7343  -2.6915  -2.5310  -2.4923
    -2.3074  -2.2290  -2.0305  -1.9610  -1.8271  -1.7645  -1.5330  -1.5111
    -1.4615  -1.4383  -0.9834  -0.9246  -0.8400  -0.8221  -0.6630  -0.6464
    -0.6458  -0.6343  -0.5092  -0.4622  -0.2814  -0.2253  -0.0367   0.0278
     0.1068   0.1157   0.1809   0.2165   0.2719   0.2744   0.2828   0.2833
     0.3443   0.4194   0.4781   0.5140   0.6108   0.6289   0.7663   0.8023

     occupation numbers 
     1.0000   1.0000   1.0000   1.0000   1.0000   1.0000   1.0000   1.0000
     1.0000   1.0000   1.0000   1.0000   1.0000   1.0000   1.0000   1.0000
     1.0000   1.0000   1.0000   1.0000   1.0000   1.0000   1.0000   1.0000
     1.0000   1.0000   1.0000   1.0000   1.0000   1.0000   1.0000   1.0000
     1.0000   1.0000   1.0000   1.0000   1.0000   1.0000   1.0000   1.0000
     1.0000   1.0000   1.0000   1.0000   1.0000   1.0000   1.0000   1.0000
     1.0000   1.0000   1.0000   1.0000   1.0000   1.0000   1.0000   1.0000
     1.0000   1.0000   1.0000   1.0000   1.0000   1.0000   1.0000   1.0000
     1.0000   1.0000   1.0000   1.0000   1.0000   1.0000   1.0000   1.0000

          k =-0.4167 0.2406 0.0332 ( 29767 PWs)   bands (ev):

   -20.4604 -20.3459 -20.2038 -20.1956 -20.0197 -19.7442 -19.6870 -19.6718
   -19.6457 -19.6193 -19.5661 -19.5516 -19.4640 -19.4344 -19.3909 -19.3246
   -19.3115 -19.2036  -5.0398  -4.7388  -4.4725  -4.4326  -4.1716  -3.3345
    -3.2341  -3.1099  -3.0184  -2.8182  -2.8166  -2.7224  -2.6431  -2.4585
    -2.2535  -2.2060  -2.0386  -1.8759  -1.7825  -1.6799  -1.5261  -1.4560
    -1.3199  -1.2048  -1.1164  -1.0520  -0.9884  -0.8899  -0.7255  -0.6989
    -0.6444  -0.5637  -0.4534  -0.4083  -0.3263  -0.3006  -0.2230   0.0680
     0.1193   0.1870   0.2381   0.2879   0.3109   0.3427   0.3473   0.3604
     0.4000   0.4079   0.4661   0.4902   0.6196   0.6997   0.7831   0.8979

     occupation numbers 
     1.0000   1.0000   1.0000   1.0000   1.0000   1.0000   1.0000   1.0000
     1.0000   1.0000   1.0000   1.0000   1.0000   1.0000   1.0000   1.0000
     1.0000   1.0000   1.0000   1.0000   1.0000   1.0000   1.0000   1.0000
     1.0000   1.0000   1.0000   1.0000   1.0000   1.0000   1.0000   1.0000
     1.0000   1.0000   1.0000   1.0000   1.0000   1.0000   1.0000   1.0000
     1.0000   1.0000   1.0000   1.0000   1.0000   1.0000   1.0000   1.0000
     1.0000   1.0000   1.0000   1.0000   1.0000   1.0000   1.0000   1.0000
     1.0000   1.0000   1.0000   1.0000   1.0000   1.0000   1.0000   1.0000
     1.0000   1.0000   1.0000   1.0000   1.0000   1.0000   1.0000   1.0000

          k =-0.4167 0.2406 0.0997 ( 29765 PWs)   bands (ev):

   -20.4446 -20.3823 -20.2099 -20.1302 -20.0646 -19.7409 -19.6722 -19.6599
   -19.6493 -19.6413 -19.5862 -19.5309 -19.4655 -19.4136 -19.4016 -19.3478
   -19.2939 -19.2052  -5.0106  -4.8223  -4.4818  -4.2750  -4.2474  -3.3789
    -3.2466  -3.1155  -2.9219  -2.8716  -2.8059  -2.8044  -2.5683  -2.4742
    -2.2165  -2.1994  -2.0021  -1.9407  -1.8305  -1.6743  -1.4949  -1.4446
    -1.2982  -1.1545  -1.1469  -0.9891  -0.9870  -0.9861  -0.8278  -0.6573
    -0.6485  -0.5374  -0.4765  -0.4476  -0.2720  -0.2631  -0.1157   0.0830
     0.1132   0.1260   0.1855   0.1987   0.3082   0.3451   0.3607   0.3638
     0.4061   0.4097   0.4516   0.5252   0.6556   0.7384   0.7426   0.9024

     occupation numbers 
     1.0000   1.0000   1.0000   1.0000   1.0000   1.0000   1.0000   1.0000
     1.0000   1.0000   1.0000   1.0000   1.0000   1.0000   1.0000   1.0000
     1.0000   1.0000   1.0000   1.0000   1.0000   1.0000   1.0000   1.0000
     1.0000   1.0000   1.0000   1.0000   1.0000   1.0000   1.0000   1.0000
     1.0000   1.0000   1.0000   1.0000   1.0000   1.0000   1.0000   1.0000
     1.0000   1.0000   1.0000   1.0000   1.0000   1.0000   1.0000   1.0000
     1.0000   1.0000   1.0000   1.0000   1.0000   1.0000   1.0000   1.0000
     1.0000   1.0000   1.0000   1.0000   1.0000   1.0000   1.0000   1.0000
     1.0000   1.0000   1.0000   1.0000   1.0000   1.0000   1.0000   1.0000

          k =-0.4167 0.2406 0.1661 ( 29765 PWs)   bands (ev):

   -20.4173 -20.4149 -20.2260 -20.1031 -20.0517 -19.7949 -19.6935 -19.6624
   -19.6158 -19.6082 -19.5887 -19.4933 -19.4796 -19.4480 -19.3872 -19.3767
   -19.2650 -19.2140  -4.9516  -4.9005  -4.4999  -4.3539  -4.0507  -3.5510
    -3.2393  -3.0203  -2.9822  -2.8144  -2.8068  -2.8007  -2.5417  -2.4912
    -2.1865  -2.1653  -2.1376  -1.9590  -1.8237  -1.6092  -1.4801  -1.4538
    -1.2029  -1.1920  -1.1032  -1.0817  -1.0067  -0.9109  -0.9022  -0.6427
    -0.6327  -0.6111  -0.5132  -0.5036  -0.1744  -0.1657  -0.0177   0.0067
     0.0155   0.1246   0.1914   0.2698   0.2748   0.3128   0.3337   0.3719
     0.3738   0.4320   0.4710   0.5410   0.6675   0.6980   0.7805   0.8957

     occupation numbers 
     1.0000   1.0000   1.0000   1.0000   1.0000   1.0000   1.0000   1.0000
     1.0000   1.0000   1.0000   1.0000   1.0000   1.0000   1.0000   1.0000
     1.0000   1.0000   1.0000   1.0000   1.0000   1.0000   1.0000   1.0000
     1.0000   1.0000   1.0000   1.0000   1.0000   1.0000   1.0000   1.0000
     1.0000   1.0000   1.0000   1.0000   1.0000   1.0000   1.0000   1.0000
     1.0000   1.0000   1.0000   1.0000   1.0000   1.0000   1.0000   1.0000
     1.0000   1.0000   1.0000   1.0000   1.0000   1.0000   1.0000   1.0000
     1.0000   1.0000   1.0000   1.0000   1.0000   1.0000   1.0000   1.0000
     1.0000   1.0000   1.0000   1.0000   1.0000   1.0000   1.0000   1.0000

     highest occupied level (ev):     0.9549

!    total energy              =   -1308.99500770 Ry

     total all-electron energy =     -6513.280665 Ry
     estimated scf accuracy    <          2.5E-09 Ry

     The total energy is the sum of the following terms:
     one-electron contribution =    -443.64754551 Ry
     hartree contribution      =     314.17246391 Ry
     xc contribution           =    -190.80144163 Ry
     ewald contribution        =    -579.70379323 Ry
     one-center paw contrib.   =    -409.01469125 Ry
      -> PAW hartree energy AE =      14.87127959 Ry
      -> PAW hartree energy PS =     -14.85563459 Ry
      -> PAW xc energy AE      =    -222.08360356 Ry
      -> PAW xc energy PS      =      14.21798684 Ry
      -> total E_H with PAW    =     314.18810892 Ry
      -> total E_XC with PAW   =    -398.66705835 Ry

     convergence has been achieved in  11 iterations

     Writing output data file ./tmp/AlF3.save/

     init_run     :    317.34s CPU    296.09s WALL (       1 calls)
     electrons    :  24575.58s CPU  38480.50s WALL (       1 calls)

     Called by init_run:
     wfcinit      :    309.94s CPU    287.52s WALL (       1 calls)
     wfcinit:atom :      3.13s CPU      2.37s WALL (     108 calls)
     wfcinit:wfcr :    290.59s CPU    270.22s WALL (     108 calls)
     potinit      :      2.43s CPU      2.53s WALL (       1 calls)
     hinit0       :      1.81s CPU      1.79s WALL (       1 calls)

     Called by electrons:
     c_bands      :  21974.60s CPU  34258.42s WALL (      11 calls)
     sum_band     :   2502.22s CPU   4017.13s WALL (      11 calls)
     v_of_rho     :     13.60s CPU     22.78s WALL (      12 calls)
     v_h          :      0.84s CPU      1.18s WALL (      12 calls)
     v_xc         :     12.76s CPU     21.60s WALL (      12 calls)
     newd         :     59.69s CPU    127.59s WALL (      12 calls)
     PAW_pot      :     21.56s CPU     48.80s WALL (      12 calls)
     mix_rho      :      4.50s CPU      5.60s WALL (      11 calls)

     Called by c_bands:
     init_us_2    :     47.35s CPU     63.19s WALL (    2484 calls)
     cegterg      :  21528.12s CPU  33659.83s WALL (    1188 calls)

     Called by sum_band:
     sum_band:wei :      0.00s CPU      0.00s WALL (      11 calls)
     sum_band:loo :   2466.41s CPU   3956.60s WALL (      11 calls)
     sum_band:buf :      7.37s CPU      9.14s WALL (    1188 calls)
     sum_band:ini :     20.95s CPU     30.32s WALL (    1188 calls)
     sum_band:cal :   1309.05s CPU   1972.97s WALL (    1188 calls)
     sum_band:bec :      0.29s CPU      0.48s WALL (    1188 calls)
     addusdens    :     25.91s CPU     44.84s WALL (      11 calls)
     addusd:skk   :      0.48s CPU      1.80s WALL (      22 calls)
     addusd:dgemm :     10.07s CPU     18.34s WALL (      22 calls)
     addusd:qvan2 :     13.49s CPU     19.15s WALL (      22 calls)

     Called by *egterg:
     cdiaghg      :   1637.07s CPU   1975.12s WALL (    4493 calls)
     cegterg:over :   4433.07s CPU   8125.67s WALL (    3305 calls)
     cegterg:upda :    403.43s CPU    601.46s WALL (    3305 calls)
     cegterg:last :    687.14s CPU    941.27s WALL (    2808 calls)
     h_psi        :  10516.79s CPU  16655.29s WALL (    4601 calls)
     s_psi        :    664.77s CPU    816.99s WALL (    4601 calls)
     g_psi        :     16.20s CPU     13.22s WALL (    3305 calls)

     Called by h_psi:
     h_psi:calbec :   4305.58s CPU   6405.43s WALL (    4601 calls)
     vloc_psi     :   5280.81s CPU   8750.72s WALL (    4601 calls)
     add_vuspsi   :    909.01s CPU   1443.42s WALL (    4601 calls)

     General routines
     calbec       :   5614.55s CPU   8378.07s WALL (    5789 calls)
     fft          :     11.82s CPU     18.78s WALL (     154 calls)
     ffts         :      0.43s CPU      0.58s WALL (      23 calls)
     fftw         :   5983.10s CPU  10211.44s WALL (  577466 calls)
     interpolate  :      0.84s CPU      1.41s WALL (      12 calls)

     Parallel routines

     PAW routines
     PAW_pot      :     21.56s CPU     48.80s WALL (      12 calls)
     PAW_symme    :      0.92s CPU      1.24s WALL (      23 calls)

     PWSCF        :      6h55m CPU     10h48m WALL


   This run was terminated on:   5:42:33  17Jul2025            

=------------------------------------------------------------------------------=
   JOB DONE.
=------------------------------------------------------------------------------=
